UNL_GMX.gro created by acpype (v: 2023.10.27) on Wed Jun 12 12:38:51 2024
 166
    1  UNL    C    1   0.292   0.050   0.080
    1  UNL   C1    2   0.371   0.029   0.193
    1  UNL   C2    3   0.309   0.012   0.316
    1  UNL   C3    4   0.170   0.014   0.332
    1  UNL   C4    5   0.086   0.034   0.222
    1  UNL   C5    6   0.153   0.052   0.098
    1  UNL   C6    7   0.081   0.070  -0.018
    1  UNL   C7    8   0.125   0.084  -0.150
    1  UNL   C8    9   0.265   0.083  -0.165
    1  UNL   C9   10   0.344   0.067  -0.052
    1  UNL  C10   11   0.517   0.021   0.177
    1  UNL  C11   12  -0.057   0.073  -0.017
    1  UNL  C12   13  -0.129   0.056   0.100
    1  UNL    N   14   0.565   0.033   0.047
    1  UNL  C13   15   0.492   0.065  -0.066
    1  UNL  C14   16  -0.061   0.035   0.223
    1  UNL  C15   17  -0.102   0.088  -0.149
    1  UNL  C16   18  -0.241   0.091  -0.163
    1  UNL  C17   19  -0.320   0.077  -0.049
    1  UNL  C18   20  -0.268   0.057   0.082
    1  UNL  C19   21  -0.347   0.037   0.196
    1  UNL  C20   22  -0.283   0.017   0.318
    1  UNL  C21   23  -0.145   0.017   0.333
    1  UNL  C22   24  -0.467   0.083  -0.062
    1  UNL   N1   25  -0.541   0.058   0.054
    1  UNL  C23   26  -0.492   0.033   0.181
    1  UNL  C24   27  -0.686   0.057   0.042
    1  UNL  C25   28  -0.750   0.177   0.113
    1  UNL  C26   29   0.709   0.016   0.033
    1  UNL  C27   30   0.745  -0.133   0.037
    1  UNL   N2   31   0.885  -0.151   0.007
    1  UNL    O   32  -0.523   0.106  -0.167
    1  UNL   O1   33  -0.568   0.007   0.273
    1  UNL   O2   34   0.593   0.002   0.270
    1  UNL   O3   35   0.546   0.090  -0.172
    1  UNL   N3   36   0.012   0.095  -0.229
    1  UNL  C28   37   0.012   0.101  -0.372
    1  UNL  C29   38   0.964  -0.237   0.075
    1  UNL   N4   39  -0.894   0.170   0.109
    1  UNL  C30   40  -0.966   0.221   0.007
    1  UNL  C31   41  -1.113   0.204   0.015
    1  UNL   O4   42  -0.913   0.281  -0.085
    1  UNL  C32   43   1.106  -0.238   0.029
    1  UNL   O5   44   0.924  -0.307   0.166
    1  UNL  C33   45  -1.182   0.190   0.135
    1  UNL  C34   46  -1.320   0.179   0.134
    1  UNL  C35   47  -1.390   0.182   0.015
    1  UNL  C36   48  -1.322   0.198  -0.105
    1  UNL  C37   49  -1.185   0.210  -0.105
    1  UNL  C38   50   1.205  -0.264   0.124
    1  UNL  C39   51   1.338  -0.266   0.087
    1  UNL  C40   52   1.374  -0.243  -0.045
    1  UNL  C41   53   1.276  -0.220  -0.140
    1  UNL  C42   54   1.143  -0.217  -0.103
    1  UNL    H   55   0.372  -0.004   0.402
    1  UNL   H1   56   0.129  -0.001   0.430
    1  UNL   H2   57   0.314   0.093  -0.261
    1  UNL   H3   58  -0.291   0.104  -0.258
    1  UNL   H4   59  -0.346   0.001   0.405
    1  UNL   H5   60  -0.103  -0.000   0.431
    1  UNL   H6   61  -0.711   0.059  -0.064
    1  UNL   H7   62  -0.723  -0.036   0.087
    1  UNL   H8   63  -0.718   0.178   0.218
    1  UNL   H9   64  -0.718   0.269   0.065
    1  UNL  H10   65   0.739   0.057  -0.064
    1  UNL  H11   66   0.758   0.069   0.113
    1  UNL  H12   67   0.727  -0.175   0.137
    1  UNL  H13   68   0.684  -0.187  -0.036
    1  UNL  H14   69   0.923  -0.092  -0.066
    1  UNL  H15   70   0.098   0.157  -0.407
    1  UNL  H16   71   0.016   0.000  -0.415
    1  UNL  H17   72  -0.079   0.150  -0.407
    1  UNL  H18   73  -0.938   0.108   0.175
    1  UNL  H19   74  -1.130   0.190   0.229
    1  UNL  H20   75  -1.373   0.168   0.228
    1  UNL  H21   76  -1.498   0.173   0.015
    1  UNL  H22   77  -1.377   0.201  -0.198
    1  UNL  H23   78  -1.130   0.224  -0.197
    1  UNL  H24   79   1.174  -0.283   0.226
    1  UNL  H25   80   1.414  -0.286   0.162
    1  UNL  H26   81   1.478  -0.244  -0.073
    1  UNL  H27   82   1.304  -0.202  -0.242
    1  UNL  H28   83   1.068  -0.199  -0.179
    2UNL      C    1   0.080   0.550  -0.292
    2UNL     C1    2   0.193   0.529  -0.371
    2UNL     C2    3   0.316   0.512  -0.309
    2UNL     C3    4   0.332   0.514  -0.170
    2UNL     C4    5   0.222   0.534  -0.086
    2UNL     C5    6   0.098   0.552  -0.153
    2UNL     C6    7  -0.018   0.570  -0.081
    2UNL     C7    8  -0.150   0.584  -0.125
    2UNL     C8    9  -0.165   0.583  -0.265
    2UNL     C9   10  -0.052   0.567  -0.344
    2UNL    C10   11   0.177   0.521  -0.517
    2UNL    C11   12  -0.017   0.573   0.057
    2UNL    C12   13   0.100   0.556   0.129
    2UNL      N   14   0.047   0.533  -0.565
    2UNL    C13   15  -0.066   0.565  -0.492
    2UNL    C14   16   0.223   0.535   0.061
    2UNL    C15   17  -0.149   0.588   0.102
    2UNL    C16   18  -0.163   0.591   0.241
    2UNL    C17   19  -0.049   0.577   0.320
    2UNL    C18   20   0.082   0.557   0.268
    2UNL    C19   21   0.196   0.537   0.347
    2UNL    C20   22   0.318   0.517   0.283
    2UNL    C21   23   0.333   0.517   0.145
    2UNL    C22   24  -0.062   0.583   0.467
    2UNL     N1   25   0.054   0.558   0.541
    2UNL    C23   26   0.181   0.533   0.492
    2UNL    C24   27   0.042   0.557   0.686
    2UNL    C25   28   0.113   0.677   0.750
    2UNL    C26   29   0.033   0.516  -0.709
    2UNL    C27   30   0.037   0.367  -0.745
    2UNL     N2   31   0.007   0.349  -0.885
    2UNL      O   32  -0.167   0.606   0.523
    2UNL     O1   33   0.273   0.507   0.568
    2UNL     O2   34   0.270   0.502  -0.593
    2UNL     O3   35  -0.172   0.590  -0.546
    2UNL     N3   36  -0.229   0.595  -0.012
    2UNL    C28   37  -0.372   0.601  -0.012
    2UNL    C29   38   0.075   0.263  -0.964
    2UNL     N4   39   0.109   0.670   0.894
    2UNL    C30   40   0.007   0.721   0.966
    2UNL    C31   41   0.015   0.704   1.113
    2UNL     O4   42  -0.085   0.781   0.913
    2UNL    C32   43   0.029   0.262  -1.106
    2UNL     O5   44   0.166   0.193  -0.924
    2UNL    C33   45   0.135   0.690   1.182
    2UNL    C34   46   0.134   0.679   1.320
    2UNL    C35   47   0.015   0.682   1.390
    2UNL    C36   48  -0.105   0.698   1.322
    2UNL    C37   49  -0.105   0.710   1.185
    2UNL    C38   50   0.124   0.236  -1.205
    2UNL    C39   51   0.087   0.234  -1.338
    2UNL    C40   52  -0.045   0.257  -1.374
    2UNL    C41   53  -0.140   0.280  -1.276
    2UNL    C42   54  -0.103   0.283  -1.143
    2UNL      H   55   0.402   0.496  -0.372
    2UNL     H1   56   0.430   0.499  -0.129
    2UNL     H2   57  -0.261   0.593  -0.314
    2UNL     H3   58  -0.258   0.604   0.291
    2UNL     H4   59   0.405   0.501   0.346
    2UNL     H5   60   0.431   0.500   0.103
    2UNL     H6   61  -0.064   0.559   0.711
    2UNL     H7   62   0.087   0.464   0.723
    2UNL     H8   63   0.218   0.678   0.718
    2UNL     H9   64   0.065   0.769   0.718
    2UNL    H10   65  -0.064   0.557  -0.739
    2UNL    H11   66   0.113   0.569  -0.758
    2UNL    H12   67   0.137   0.325  -0.727
    2UNL    H13   68  -0.036   0.313  -0.684
    2UNL    H14   69  -0.066   0.408  -0.923
    2UNL    H15   70  -0.407   0.657  -0.098
    2UNL    H16   71  -0.415   0.500  -0.016
    2UNL    H17   72  -0.407   0.650   0.079
    2UNL    H18   73   0.175   0.608   0.938
    2UNL    H19   74   0.229   0.690   1.130
    2UNL    H20   75   0.228   0.668   1.373
    2UNL    H21   76   0.015   0.673   1.498
    2UNL    H22   77  -0.198   0.701   1.377
    2UNL    H23   78  -0.197   0.724   1.130
    2UNL    H24   79   0.226   0.217  -1.174
    2UNL    H25   80   0.162   0.214  -1.414
    2UNL    H26   81  -0.073   0.256  -1.478
    2UNL    H27   82  -0.242   0.298  -1.304
    2UNL    H28   83  -0.179   0.301  -1.068
   59.52200    11.75800    16.91800
