A Gromacs structure file written by ASE 
   42
    1UNL    C16    1   1.934   1.959   2.908  0.0000  0.0000  0.0000
    1UNL     C8    2   2.312   1.816   3.029  0.0000  0.0000  0.0000
    1UNL    C11    3   2.187   1.920   2.803  0.0000  0.0000  0.0000
    1UNL    C14    4   2.253   1.931   2.574  0.0000  0.0000  0.0000
    1UNL    C18    5   2.022   1.974   2.645  0.0000  0.0000  0.0000
    1UNL    C20    6   2.075   2.001   2.361  0.0000  0.0000  0.0000
    1UNL    C21    7   2.404   1.844   2.758  0.0000  0.0000  0.0000
    1UNL    C15    8   2.513   1.859   2.490  0.0000  0.0000  0.0000
    1UNL     O3    9   2.633   1.741   2.859  0.0000  0.0000  0.0000
    1UNL      O   10   1.755   2.007   2.600  0.0000  0.0000  0.0000
    1UNL     O4   11   2.070   1.933   3.129  0.0000  0.0000  0.0000
    1UNL     C7   12   1.470   1.986   2.592  0.0000  0.0000  0.0000
    1UNL    C12   13   2.862   1.593   2.973  0.0000  0.0000  0.0000
    1UNL    N14   14   2.861   1.376   2.813  0.0000  0.0000  0.0000
    1UNL    N18   15   1.494   1.776   2.446  0.0000  0.0000  0.0000
    1UNL    C31   16   1.398   1.702   2.252  0.0000  0.0000  0.0000
    1UNL    C34   17   1.409   1.571   2.026  0.0000  0.0000  0.0000
    1UNL    C36   18   1.590   1.466   2.225  0.0000  0.0000  0.0000
    1UNL    C32   19   2.824   1.151   2.669  0.0000  0.0000  0.0000
    1UNL    C25   20   2.788   1.081   2.424  0.0000  0.0000  0.0000
    1UNL    C27   21   2.819   1.367   2.468  0.0000  0.0000  0.0000
    2UNL    C16   22   2.725   2.862   2.360  0.0000  0.0000  0.0000
    2UNL     C8   23   2.327   2.825   2.497  0.0000  0.0000  0.0000
    2UNL    C11   24   2.483   2.755   2.277  0.0000  0.0000  0.0000
    2UNL    C14   25   2.427   2.674   2.059  0.0000  0.0000  0.0000
    2UNL    C18   26   2.651   2.760   2.112  0.0000  0.0000  0.0000
    2UNL    C20   27   2.610   2.660   1.841  0.0000  0.0000  0.0000
    2UNL    C21   28   2.256   2.708   2.245  0.0000  0.0000  0.0000
    2UNL    C15   29   2.164   2.594   1.995  0.0000  0.0000  0.0000
    2UNL     O3   30   2.008   2.704   2.353  0.0000  0.0000  0.0000
    2UNL      O   31   2.897   2.852   2.044  0.0000  0.0000  0.0000
    2UNL     O4   32   2.598   2.858   2.587  0.0000  0.0000  0.0000
    2UNL     C7   33   3.134   3.007   2.004  0.0000  0.0000  0.0000
    2UNL    C12   34   1.738   2.740   2.467  0.0000  0.0000  0.0000
    2UNL    N14   35   1.628   2.897   2.277  0.0000  0.0000  0.0000
    2UNL    N18   36   3.007   3.149   1.831  0.0000  0.0000  0.0000
    2UNL    C31   37   3.051   3.224   1.619  0.0000  0.0000  0.0000
    2UNL    C34   38   2.973   3.292   1.379  0.0000  0.0000  0.0000
    2UNL    C36   39   2.767   3.329   1.579  0.0000  0.0000  0.0000
    2UNL    C32   40   1.546   3.083   2.099  0.0000  0.0000  0.0000
    2UNL    C25   41   1.538   3.116   1.845  0.0000  0.0000  0.0000
    2UNL    C27   42   1.654   2.863   1.933  0.0000  0.0000  0.0000
   5.00000   5.00000   5.00000   0.00000   0.00000   0.00000   0.00000   0.00000   0.00000
