[ moleculetype ]
; molname        nrexcl
UNL              1

; id type resnr residue   atom  cgnr    charge     mass
[ atoms ]
; id type resnr residue   atom  cgnr    charge     mass
1   TC1vh     1     UNL    C16  1      0.00000     36.00 ; 0
2   TC1vh     1     UNL     C8  2      0.00000     36.00 ; 1
3   TC1ch     1     UNL    C11  3      0.00000     36.00 ; 2
4   TC1ch     1     UNL    C14  4      0.00000     36.00 ; 3
5   TC1ch     1     UNL    C18  5      0.00000     36.00 ; 4
6   TC1vh     1     UNL    C20  6      0.00000     36.00 ; 5
7   TC1ch     1     UNL    C21  7      0.00000     36.00 ; 6
8   TC1vh     1     UNL    C15  8      0.00000     36.00 ; 7
9      P3     1     UNL     O3  9      0.00000     72.00 ; 8
10     P3     1     UNL      O  10     0.00000     72.00 ; 9
11    Q2p     1     UNL     O4  11     0.00000     36.00 ; 10
12  TC1vh     1     UNL     C7  12     0.00000     36.00 ; 11
13  TC1vh     1     UNL    C12  13     0.00000     36.00 ; 12
14    Q2p     1     UNL    N14  14     0.00000     72.00 ; 13
15    Q2p     1     UNL    N18  15     0.00000     72.00 ; 14
16  TC1vh     1     UNL    C31  16     0.00000     36.00 ; 15
17  TC1vh     1     UNL    C34  17     0.00000     36.00 ; 16
18  TC1vh     1     UNL    C36  18     0.00000     36.00 ; 17
19  TC1vh     1     UNL    C32  19     0.00000     36.00 ; 18
20  TC1vh     1     UNL    C25  20     0.00000     36.00 ; 19
21  TC1vh     1     UNL    C27  21     0.00000     36.00 ; 20


[ bonds ]
;   i     j   funct   length   force.c.

; bond type 1
    1    11       1    0.277  8646.73           ; 1
    2    11       1    0.277  8646.73           ; 1
    3     1       1    0.277  8646.73           ; 1
    3     2       1    0.277  8646.73           ; 1
    9    13       1    0.277  8646.73           ; 1
   10    12       1    0.277  8646.73           ; 1

; bond type 2
    3    11       1    0.333  8345.37           ; 2

; bond type 3
    3     4       1    0.231  8377.80           ; 3
   15    16       1    0.231  8377.80           ; 3
   14    19       1    0.231  8377.80           ; 3
    3     5       1    0.231  8377.80           ; 3
    3     7       1    0.231  8377.80           ; 3

; bond type 4
    4     6       1    0.274  9220.60           ; 4
    4     8       1    0.274  9220.60           ; 4
    5    10       1    0.274  9220.60           ; 4
    7     9       1    0.274  9220.60           ; 4

; bond type 5
   12    15       1    0.245  7702.25           ; 5
   13    14       1    0.245  7702.25           ; 5
   16    17       1    0.245  7702.25           ; 5
   19    20       1    0.245  7702.25           ; 5

; bond type 6
   16    18       1    0.294  11749.48           ; 6
   19    21       1    0.294  11749.48           ; 6


[ angles ]
;   i     j     k   funct     angle   force.c.

; angle type 1
    1     3     2       1     93.83    146.25           ; 1
    6     4     8       1     93.83    146.25           ; 1
   10    12    15       1     93.83    146.25           ; 1
    9    13    14       1     93.83    146.25           ; 1
    6     5    10       1     93.83    146.25           ; 1
    8     7     9       1     93.83    146.25           ; 1
    1    11     2       1     93.83    146.25           ; 1

; angle type 2
    1     3     5       1     64.98    608.13           ; 2
    2     3     7       1     64.98    608.13           ; 2
    6     4     5       1     64.98    608.13           ; 2
    8     4     7       1     64.98    608.13           ; 2

; angle type 3
    3     5     4       1     61.71    642.77           ; 3
    3     7     4       1     61.71    642.77           ; 3
   16    17    18       1     61.71    642.77           ; 3
   19    20    21       1     61.71    642.77           ; 3
   21    19    20       1     61.71    642.77           ; 3
   18    16    17       1     61.71    642.77           ; 3

; angle type 4
    3     5    10       1    144.68    803.26           ; 4
    3     7     9       1    144.68    803.26           ; 4

; angle type 5
    5    10    12       1    176.24    292.34           ; 5
    7     9    13       1    176.24    292.34           ; 5
    1     5     6       1    176.24    292.34           ; 5
    2     7     8       1    176.24    292.34           ; 5

; angle type 6
    5     3     7       1    123.47    500.67           ; 6
   11     1     5       1    123.47    500.67           ; 6
   11     2     7       1    123.47    500.67           ; 6
    5     4     7       1    123.47    500.67           ; 6

; angle type 7
    1     5    10       1     79.01    752.62           ; 7
    2     7     9       1     79.01    752.62           ; 7

; angle type 8
    1    11     3       1     49.25    280.52           ; 8
    2    11     3       1     49.25    280.52           ; 8
   20    21    19       1     49.25    280.52           ; 8
   17    18    16       1     49.25    280.52           ; 8


[ dihedrals ]
;   i     j     k     l   funct     dihedral   force.c.   mult.

; dihedral type 1
    5    10    12    15       1        -9.61    1.94       2     ; 1
    7     9    13    14       1        -9.61    1.94       2     ; 1

; dihedral type 2
    1     2     6     8       4        -8.31   -2.13       2     ; 2
    2     3     4     6       4        -8.31   -2.13       2     ; 2
   10     6     5     4       4        -8.31   -2.13       2     ; 2
    9     8     7     4       4        -8.31   -2.13       2     ; 2
   11     2     1     3       4        -8.31   -2.13       2     ; 2

; dihedral type 3
    1     3     4     8       4        -1.06   -1.70       2     ; 3
   10     1     5     3       4        -1.06   -1.70       2     ; 3
    9     2     7     3       4        -1.06   -1.70       2     ; 3
    1    11     3     2       4        -1.06   -1.70       2     ; 3


