CLF
 2704
    1CLF     CX    1   6.229   3.269   3.387 -0.0302 -0.0158  0.0151
    2CLF     CX    2   2.560   3.326   4.344 -0.0255  0.4691  0.0414
    3CLF     CX    3   5.641   4.968   1.034 -0.2226  0.1043 -0.0276
    4CLF     CX    4   2.588   1.583   6.898 -0.0602  0.1029  0.3934
    5CLF     CX    5   6.351   2.367   6.928 -0.0160 -0.0781  0.2021
    6CLF     CX    6   2.742   1.194   5.156  0.0710  0.2137  0.0898
    7CLF     CX    7   4.084   3.980   2.546 -0.3083  0.0637  0.1514
    8CLF     CX    8   0.275   3.748   1.748  0.0299  0.3152  0.1016
    9CLF     CX    9   2.994   6.629   5.508 -0.0950  0.3150 -0.3009
   10CLF     CX   10   4.419   4.558   5.615  0.0626 -0.2510  0.1918
   11CLF     CX   11   5.726   6.328   3.424 -0.1547 -0.0434  0.1187
   12CLF     CX   12   1.622   2.033   4.109 -0.0462  0.1862  0.0574
   13CLF     CX   13   5.562   5.736   0.147  0.1707 -0.2192 -0.2100
   14CLF     CX   14   1.850   3.974   1.289 -0.0592 -0.0892 -0.0727
   15CLF     CX   15   0.363   5.636   5.131  0.1379  0.0209 -0.3019
   16CLF     CX   16   4.863   1.154   6.168 -0.0841 -0.0946  0.0931
   17CLF     CX   17   2.301   0.211   2.174  0.0855  0.1992  0.0841
   18CLF     CX   18   1.676   3.986   7.044 -0.0708  0.1397  0.1750
   19CLF     CX   19   1.843   6.559   6.561 -0.0250  0.2929  0.2761
   20CLF     CX   20   6.062   4.996   0.754 -0.1107 -0.1768  0.0841
   21CLF     CX   21   1.957   0.510   6.335  0.0802 -0.0813 -0.0430
   22CLF     CX   22   2.448   6.005   6.443 -0.1410  0.0486 -0.2861
   23CLF     CX   23   0.152   6.651   2.112 -0.0990 -0.0535 -0.2971
   24CLF     CX   24   0.518   6.010   4.364  0.1532 -0.4189 -0.0728
   25CLF     CX   25   6.003   3.124   6.468 -0.1335 -0.1436 -0.1448
   26CLF     CX   26   4.736   0.002   6.746  0.1140 -0.1205  0.0732
   27CLF     CX   27   4.524   5.035   1.131  0.1469  0.0687  0.4468
   28CLF     CX   28   5.648   5.627   2.208 -0.1211  0.4234 -0.1626
   29CLF     CX   29   1.841   1.253   3.014 -0.1723 -0.1706 -0.2454
   30CLF     CX   30   6.244   4.437   0.037  0.0255 -0.3000 -0.0688
   31CLF     CX   31   2.150   0.823   4.540  0.1843  0.2689  0.0973
   32CLF     CX   32   0.777   2.663   6.045  0.0389  0.0601 -0.2384
   33CLF     CX   33   0.473   6.438   2.494 -0.1110 -0.1393 -0.1101
   34CLF     CX   34   3.826   4.284   2.215  0.3711 -0.0837 -0.3449
   35CLF     CX   35   0.704   5.395   6.728  0.1238 -0.3213  0.1113
   36CLF     CX   36   2.850   4.791   4.903  0.1813 -0.0179 -0.0179
   37CLF     CX   37   0.331   2.618   2.547  0.0810 -0.0373  0.1781
   38CLF     CX   38   3.603   0.210   3.249 -0.2080 -0.3165  0.0980
   39CLF     CX   39   4.042   2.559   0.271 -0.3489  0.2900 -0.1009
   40CLF     CX   40   0.688   6.950   6.411 -0.1453  0.3421  0.0113
   41CLF     CX   41   5.402   3.797   6.628  0.2979 -0.0562 -0.1379
   42CLF     CX   42   5.223   6.887   6.049 -0.2195 -0.1941  0.2544
   43CLF     CX   43   4.294   2.241   4.942 -0.0128 -0.1738 -0.0042
   44CLF     CX   44   4.238   2.654   1.461 -0.1771  0.0539  0.1379
   45CLF     CX   45   6.654   2.751   2.672  0.0554  0.1892 -0.2798
   46CLF     CX   46   3.492   4.649   0.127  0.1322  0.2490  0.3199
   47CLF     CX   47   2.746   4.308   3.995  0.1278  0.3080  0.2598
   48CLF     CX   48   3.566   3.374   0.940  0.0039  0.0663 -0.1517
   49CLF     CX   49   2.506   3.749   5.851  0.1126  0.1866  0.0900
   50CLF     CX   50   1.879   6.212   2.417  0.0458  0.1007  0.1948
   51CLF     CX   51   6.780   0.327   5.408 -0.1128 -0.0329 -0.0896
   52CLF     CX   52   0.367   6.731   1.634 -0.2611 -0.1660  0.3456
   53CLF     CX   53   1.936   3.387   0.448 -0.1930  0.1898  0.3138
   54CLF     CX   54   1.056   0.320   0.475 -0.2732 -0.2109  0.3063
   55CLF     CX   55   5.075   2.084   6.362  0.3078  0.0395  0.2302
   56CLF     CX   56   6.029   7.157   3.127  0.0812 -0.0528 -0.1951
   57CLF     CX   57   4.150   3.538   5.925 -0.0100 -0.0802 -0.5164
   58CLF     CX   58   0.870   4.835   6.579 -0.2012 -0.0364  0.3119
   59CLF     CX   59   1.538   2.700   2.949 -0.0664 -0.1228  0.0025
   60CLF     CX   60   6.940   2.966   4.674  0.2032 -0.2628  0.1100
   61CLF     CX   61   6.313   3.601   5.198  0.0070 -0.0405 -0.0369
   62CLF     CX   62   4.713   3.149   3.261 -0.0753 -0.1035 -0.0066
   63CLF     CX   63   5.986   4.057   3.782  0.2008  0.3010 -0.0057
   64CLF     CX   64   5.278   4.600   2.562  0.0205  0.1112 -0.0273
   65CLF     CX   65   2.651   3.246   5.984 -0.0742  0.0348 -0.1960
   66CLF     CX   66   3.166   1.451   1.755  0.2271 -0.1358  0.1934
   67CLF     CX   67   2.832   3.928   3.620  0.1730 -0.0632 -0.1002
   68CLF     CX   68   1.629   1.539   2.269 -0.0962  0.3090 -0.2006
   69CLF     CX   69   2.731   0.219   7.039 -0.2476  0.0880  0.0414
   70CLF     CX   70   4.926   4.738   5.781 -0.1070  0.1777  0.2707
   71CLF     CX   71   0.676   4.840   1.636  0.1117 -0.1822  0.1689
   72CLF     CX   72   0.837   2.624   0.513  0.0159  0.1525 -0.1593
   73CLF     CX   73   4.094   0.968   1.517  0.1007  0.1839  0.0750
   74CLF     CX   74   0.365   4.382   0.054  0.0205  0.2854 -0.0363
   75CLF     CX   75   2.870   5.532   4.385 -0.1248 -0.0616 -0.0665
   76CLF     CX   76   4.436   1.068   2.821 -0.0967  0.1817 -0.0021
   77CLF     CX   77   4.476   3.223   4.039  0.0917  0.1013 -0.0548
   78CLF     CX   78   2.362   0.479   5.073  0.3900  0.2880 -0.1290
   79CLF     CX   79   2.197   2.938   4.268 -0.0873 -0.0363  0.0009
   80CLF     CX   80   5.670   5.736   2.723 -0.1131  0.7257 -0.3321
   81CLF     CX   81   5.720   0.638   4.060  0.1058  0.1344  0.2219
   82CLF     CX   82   4.218   4.133   5.202  0.0725  0.0902  0.0828
   83CLF     CX   83   2.513   5.600   2.639  0.1287 -0.1080  0.0457
   84CLF     CX   84   5.998   5.521   1.890  0.1832  0.1338 -0.0436
   85CLF     CX   85   6.468   0.978   2.627 -0.1509  0.0102  0.2319
   86CLF     CX   86   6.094   1.022   4.140  0.2239 -0.2371 -0.0019
   87CLF     CX   87   5.090   2.534   0.523  0.0887 -0.0763  0.1828
   88CLF     CX   88   3.624   3.169   2.150 -0.2442  0.2530 -0.3740
   89CLF     CX   89   4.379   6.305   1.510  0.4082  0.0250  0.1482
   90CLF     CX   90   0.508   1.842   3.517 -0.1291  0.0627 -0.0576
   91CLF     CX   91   3.455   2.696   6.050  0.0994  0.0378  0.2902
   92CLF     CX   92   4.968   5.846   4.585  0.2021  0.0978  0.2540
   93CLF     CX   93   5.218   1.519   6.554 -0.1459  0.0598 -0.1048
   94CLF     CX   94   2.488   2.948   6.751  0.2625  0.1707 -0.0965
   95CLF     CX   95   2.058   5.859   1.402 -0.3297  0.0095 -0.0100
   96CLF     CX   96   4.840   4.485   1.065  0.1045 -0.0462  0.1195
   97CLF     CX   97   3.378   5.471   3.074 -0.2067  0.1019  0.0262
   98CLF     CX   98   6.216   5.930   6.843 -0.1209  0.0091  0.0794
   99CLF     CX   99   4.798   1.417   5.121  0.0050 -0.0493  0.2418
  100CLF     CX  100   5.082   6.741   3.038 -0.1784  0.0371 -0.2192
  101CLF     CX  101   2.152   1.727   4.351 -0.1867 -0.2935 -0.0125
  102CLF     CX  102   0.612   1.250   0.563  0.1462  0.2265  0.1004
  103CLF     CX  103   3.638   5.454   4.034 -0.0208  0.4802 -0.1107
  104CLF     CX  104   5.408   5.977   4.984 -0.2094  0.0787 -0.0165
  105CLF     CX  105   3.721   0.782   1.271  0.0638 -0.1713  0.3678
  106CLF     CX  106   4.234   2.048   2.384  0.1533 -0.0395  0.2900
  107CLF     CX  107   4.881   2.075   2.463 -0.0285 -0.0052  0.3871
  108CLF     CX  108   1.346   0.499   0.825 -0.0274  0.0469 -0.0736
  109CLF     CX  109   1.807   1.636   5.416 -0.1269 -0.2678  0.0223
  110CLF     CX  110   0.934   1.846   5.665 -0.1334 -0.1279  0.0356
  111CLF     CX  111   5.420   3.737   7.150 -0.0718 -0.0275  0.2241
  112CLF     CX  112   5.744   4.063   5.833 -0.0765 -0.1466  0.2240
  113CLF     CX  113   2.049   6.656   2.507 -0.2553  0.1107  0.1257
  114CLF     CX  114   0.765   0.401   0.903  0.0193  0.1972 -0.1269
  115CLF     CX  115   4.189   4.844   3.160  0.1118 -0.1252 -0.0003
  116CLF     CX  116   3.703   4.903   4.909 -0.1138 -0.1819 -0.2339
  117CLF     CX  117   0.370   6.950   0.254 -0.0567  0.0011  0.1359
  118CLF     CX  118   7.072   4.578   1.592 -0.0625 -0.4156  0.0147
  119CLF     CX  119   4.355   3.473   2.224 -0.3461  0.0962 -0.3618
  120CLF     CX  120   2.501   2.951   5.310  0.0036  0.2894 -0.1840
  121CLF     CX  121   3.568   1.959   2.819 -0.1949 -0.0643 -0.0984
  122CLF     CX  122   0.507   5.049   2.139  0.3166  0.0801  0.0804
  123CLF     CX  123   0.321   7.119   3.684 -0.1577  0.1423 -0.2986
  124CLF     CX  124   0.602   3.583   4.302 -0.0085  0.2191 -0.3037
  125CLF     CX  125   5.613   6.389   6.734 -0.0637 -0.0265  0.0282
  126CLF     CX  126   3.431   4.512   5.136 -0.1654  0.0760 -0.2216
  127CLF     CX  127   6.998   3.424   6.518  0.0225 -0.1766 -0.1246
  128CLF     CX  128   6.685   4.715   3.045 -0.3698 -0.3443 -0.0106
  129CLF     CX  129   0.574   2.545   4.324  0.3524 -0.0435  0.0747
  130CLF     CX  130   3.050   2.053   5.244  0.1991  0.0910  0.0423
  131CLF     CX  131   0.031   1.550   3.612 -0.1411  0.0254 -0.1526
  132CLF     CX  132   5.403   4.599   5.494 -0.2884 -0.1849  0.0341
  133CLF     CX  133   0.236   4.601   3.678 -0.2116  0.1583  0.0048
  134CLF     CX  134   6.647   5.026   5.139  0.1528  0.1702 -0.1772
  135CLF     CX  135   6.886   5.927   4.849 -0.0152 -0.1860  0.1442
  136CLF     CX  136   5.765   5.080   4.052 -0.0542  0.0015 -0.0482
  137CLF     CX  137   4.056   6.983   4.788 -0.0929 -0.3669 -0.0482
  138CLF     CX  138   3.741   1.259   1.309  0.0482 -0.1004 -0.1506
  139CLF     CX  139   0.891   3.316   7.045  0.1136  0.0931  0.3249
  140CLF     CX  140   6.727   2.115   0.760 -0.1590 -0.0510 -0.1261
  141CLF     CX  141   6.386   6.377   5.869 -0.0419 -0.0541  0.0137
  142CLF     CX  142   0.782   1.976   1.886  0.1390  0.1766 -0.1734
  143CLF     CX  143   5.672   5.863   1.714  0.0201  0.3107 -0.1717
  144CLF     CX  144   3.937   1.809   5.609 -0.0917 -0.3809 -0.1238
  145CLF     CX  145   2.595   5.523   6.307 -0.0388  0.1126 -0.0760
  146CLF     CX  146   4.723   5.275   4.740 -0.1387  0.0704 -0.1152
  147CLF     CX  147   6.289   4.402   3.700 -0.0464  0.1146  0.2861
  148CLF     CX  148   5.546   1.949   1.502 -0.0746  0.2638  0.1127
  149CLF     CX  149   4.178   0.313   2.949 -0.0425  0.0826  0.1629
  150CLF     CX  150   4.521   5.314   2.477 -0.0261 -0.2015 -0.5335
  151CLF     CX  151   4.929   3.958   3.592  0.0769 -0.3654  0.1633
  152CLF     CX  152   0.557   6.780   3.023  0.5244 -0.1445 -0.1068
  153CLF     CX  153   3.002   6.877   4.755  0.0042 -0.2178  0.0873
  154CLF     CX  154   0.199   2.148   2.104 -0.1865  0.2362 -0.1987
  155CLF     CX  155   0.174   0.288   0.568  0.1299  0.0000 -0.1407
  156CLF     CX  156   4.446   4.957   0.616  0.1105 -0.0189  0.1218
  157CLF     CX  157   1.873   2.351   0.197  0.0916  0.0628 -0.0284
  158CLF     CX  158   4.865   0.142   0.926 -0.1723  0.0773 -0.3017
  159CLF     CX  159   0.046   5.718   1.812  0.1874 -0.3043  0.0691
  160CLF     CX  160   6.284   1.541   4.734 -0.0393  0.3793 -0.0769
  161CLF     CX  161   4.712   2.235   5.394  0.3000  0.1233  0.2220
  162CLF     CX  162   4.411   2.827   5.161 -0.0931  0.1598 -0.2117
  163CLF     CX  163   4.150   5.342   3.124  0.4263  0.2435  0.1942
  164CLF     CX  164   4.368   1.455   3.308  0.0820 -0.0318 -0.1353
  165CLF     CX  165   5.930   2.322   7.125 -0.3676  0.1135 -0.0062
  166CLF     CX  166   5.496   5.452   5.339 -0.1494  0.1067  0.2399
  167CLF     CX  167   5.590   5.055   6.040  0.4740  0.1335  0.4058
  168CLF     CX  168   0.862   0.579   1.834  0.2304 -0.1704  0.0377
  169CLF     CX  169   4.550   5.362   6.515 -0.0122  0.0225  0.3564
  170CLF     CX  170   3.639   0.878   6.462  0.1734 -0.0460  0.1289
  171CLF     CX  171   0.797   5.434   4.361  0.0899 -0.1903  0.0237
  172CLF     CX  172   3.229   6.960   3.790  0.2744 -0.0564 -0.3189
  173CLF     CX  173   4.216   5.831   3.225  0.3146 -0.2520  0.1064
  174CLF     CX  174   1.377   4.117   1.709  0.1619 -0.1617 -0.0404
  175CLF     CX  175   2.718   3.417   1.239  0.1615 -0.2625 -0.1078
  176CLF     CX  176   0.688   4.344   1.280  0.1049 -0.1490  0.0998
  177CLF     CX  177   5.132   3.408   5.586 -0.2798 -0.0610 -0.1165
  178CLF     CX  178   3.546   0.963   0.330 -0.1091  0.0994  0.5997
  179CLF     CX  179   1.719   2.393   6.509 -0.0757 -0.0420 -0.0141
  180CLF     CX  180   5.529   2.793   5.747 -0.0719 -0.0991 -0.0247
  181CLF     CX  181   0.982   5.307   2.401 -0.0737  0.2988 -0.0352
  182CLF     CX  182   6.236   6.999   7.030 -0.0170  0.1207  0.1546
  183CLF     CX  183   6.161   7.142   6.495  0.2109 -0.0269  0.4468
  184CLF     CX  184   3.918   4.455   6.597  0.0997 -0.2006  0.1722
  185CLF     CX  185   3.835   4.818   4.236 -0.1190 -0.1689 -0.3410
  186CLF     CX  186   3.400   4.002   5.031 -0.1855 -0.0640 -0.2655
  187CLF     CX  187   4.559   3.450   4.485  0.0090 -0.1774  0.1836
  188CLF     CX  188   0.071   2.560   4.994 -0.1930 -0.2360 -0.0237
  189CLF     CX  189   0.362   4.832   6.745 -0.0619  0.0567  0.2270
  190CLF     CX  190   5.546   6.082   2.367 -0.0285 -0.1503 -0.5307
  191CLF     CX  191   1.259   6.201   3.836 -0.1776  0.1703  0.1872
  192CLF     CX  192   6.723   1.129   0.472 -0.1980  0.1723  0.0481
  193CLF     CX  193   3.932   6.487   5.559  0.1622  0.1368 -0.0667
  194CLF     CX  194   5.788   0.100   2.407 -0.1593  0.1571 -0.2198
  195CLF     CX  195   0.580   2.602   3.728  0.2456  0.1347 -0.1590
  196CLF     CX  196   4.870   4.729   3.071 -0.2713 -0.1238 -0.1554
  197CLF     CX  197   0.553   2.194   0.750  0.1266  0.0809  0.0151
  198CLF     CX  198   4.003   1.998   0.379 -0.1544  0.2102 -0.0660
  199CLF     CX  199   5.390   2.722   3.933  0.2893  0.2685  0.0001
  200CLF     CX  200   1.098   2.468   7.058  0.1834  0.2968  0.1758
  201CLF     CX  201   2.096   4.362   5.169 -0.1862 -0.1676 -0.1623
  202CLF     CX  202   5.055   2.988   2.908 -0.1901 -0.0277  0.0169
  203CLF     CX  203   4.610   1.889   6.184  0.1513  0.0671 -0.0002
  204CLF     CX  204   0.818   5.830   4.783  0.3254  0.0412  0.1770
  205CLF     CX  205   7.144   1.780   2.472  0.2442 -0.0730  0.1279
  206CLF     CX  206   6.705   7.091   1.378 -0.1227 -0.0517  0.1548
  207CLF     CX  207   5.654   1.260   0.749  0.0295  0.1865  0.1892
  208CLF     CX  208   6.333   0.882   4.841  0.0875  0.0282  0.0116
  209CLF     CX  209   1.183   2.096   1.657 -0.0989  0.2593 -0.1588
  210CLF     CX  210   6.128   5.592   4.573 -0.0953  0.0423 -0.0386
  211CLF     CX  211   6.674   3.464   1.670  0.0304 -0.0161  0.1018
  212CLF     CX  212   1.809   3.160   4.676  0.0135  0.1834  0.2177
  213CLF     CX  213   0.994   2.942   2.000 -0.3925  0.1723 -0.0384
  214CLF     CX  214   0.513   3.876   1.011  0.0332 -0.1290  0.5609
  215CLF     CX  215   5.492   1.475   1.240 -0.2503  0.1467  0.2735
  216CLF     CX  216   3.969   5.068   3.513  0.3464  0.0485 -0.2469
  217CLF     CX  217   6.041   0.821   3.419  0.2180  0.0876  0.0930
  218CLF     CX  218   3.005   0.896   5.518  0.0711 -0.0511  0.2008
  219CLF     CX  219   1.219   1.203   2.417  0.0049 -0.0585  0.0461
  220CLF     CX  220   5.249   3.286   7.129  0.1899  0.2411 -0.2136
  221CLF     CX  221   5.850   4.274   5.423  0.0473 -0.0798 -0.2021
  222CLF     CX  222   0.440   7.015   6.944  0.0060 -0.1202  0.0473
  223CLF     CX  223   5.280   6.740   0.116  0.0001  0.0292 -0.2605
  224CLF     CX  224   2.965   0.770   3.728  0.0474 -0.1166  0.0662
  225CLF     CX  225   5.159   5.200   2.009 -0.1966 -0.1341 -0.0253
  226CLF     CX  226   4.726   3.479   1.926 -0.2396 -0.0952 -0.1060
  227CLF     CX  227   3.749   5.602   2.114  0.1232  0.0799  0.2528
  228CLF     CX  228   0.231   5.378   6.870  0.0858 -0.1537  0.1112
  229CLF     CX  229   5.260   3.379   3.687  0.2564  0.1047 -0.1076
  230CLF     CX  230   6.065   0.488   2.812 -0.1358  0.0825 -0.1511
  231CLF     CX  231   1.919   0.113   6.621  0.3562  0.1131 -0.0302
  232CLF     CX  232   3.090   6.485   4.111  0.0005 -0.1100  0.4363
  233CLF     CX  233   4.613   6.646   4.789  0.0309  0.5254 -0.1188
  234CLF     CX  234   4.719   6.039   3.255 -0.1593 -0.2551 -0.0909
  235CLF     CX  235   0.426   2.860   3.032  0.2390  0.2571  0.3210
  236CLF     CX  236   4.035   6.651   1.683 -0.2299  0.0413 -0.0852
  237CLF     CX  237   1.392   2.094   4.993  0.2164 -0.1276 -0.1438
  238CLF     CX  238   1.936   2.658   2.135 -0.2879  0.0392  0.0359
  239CLF     CX  239   1.570   4.793   6.934 -0.2262  0.0698 -0.0301
  240CLF     CX  240   5.415   4.351   2.988 -0.1627  0.2542 -0.1605
  241CLF     CX  241   1.518   2.376   0.540  0.0755 -0.1271  0.1119
  242CLF     CX  242   4.115   5.053   5.255 -0.4191 -0.0605  0.3693
  243CLF     CX  243   1.418   1.220   4.170  0.2511  0.1147  0.2535
  244CLF     CX  244   4.628   3.795   5.427  0.0691  0.0747  0.1656
  245CLF     CX  245   3.571   2.321   4.482 -0.2466 -0.2448  0.0576
  246CLF     CX  246   1.973   5.096   7.011 -0.0648  0.0585 -0.0081
  247CLF     CX  247   2.141   2.182   2.216 -0.2106  0.4336  0.0658
  248CLF     CX  248   0.340   1.918   1.673  0.1832 -0.2608  0.0716
  249CLF     CX  249   3.689   5.904   0.728 -0.1088  0.0372 -0.2183
  250CLF     CX  250   0.969   6.600   3.909 -0.1236 -0.0568  0.2615
  251CLF     CX  251   5.713   4.978   2.028 -0.2862 -0.0006  0.0744
  252CLF     CX  252   0.343   3.371   3.003  0.3788  0.0511  0.0203
  253CLF     CX  253   6.499   2.142   6.491 -0.1030 -0.0967 -0.1830
  254CLF     CX  254   2.680   2.086   1.391  0.0483 -0.2302 -0.0981
  255CLF     CX  255   4.814   5.768   0.118  0.0822  0.2038  0.2468
  256CLF     CX  256   3.167   3.373   1.257  0.0001  0.0215  0.2863
  257CLF     CX  257   5.962   5.484   6.622  0.0215  0.1511 -0.1742
  258CLF     CX  258   5.771   6.875   5.900  0.0385 -0.0489  0.2047
  259CLF     CX  259   2.043   3.889   5.315  0.0207  0.0151 -0.3668
  260CLF     CX  260   1.691   3.979   5.002 -0.0111  0.2190  0.0506
  261CLF     CX  261   4.646   5.934   0.654 -0.0659  0.3113  0.0268
  262CLF     CX  262   5.326   5.620   3.078  0.0920  0.0338  0.0842
  263CLF     CX  263   1.779   3.462   2.874 -0.6719  0.0175 -0.0319
  264CLF     CX  264   6.592   3.012   3.614  0.0180  0.1506  0.3102
  265CLF     CX  265   2.683   3.401   5.503 -0.2825  0.4754 -0.0056
  266CLF     CX  266   2.824   1.209   2.166 -0.0059 -0.0307  0.0617
  267CLF     CX  267   6.438   1.264   0.932 -0.2315 -0.0243  0.1412
  268CLF     CX  268   1.009   3.317   0.412  0.5048  0.1257 -0.0907
  269CLF     CX  269   7.089   2.503   5.791  0.2216 -0.2286  0.2963
  270CLF     CX  270   4.494   7.138   2.412 -0.0657  0.0909  0.1125
  271CLF     CX  271   4.309   0.854   1.965  0.1592  0.0032 -0.3940
  272CLF     CX  272   6.782   3.821   0.172 -0.1477 -0.0504  0.2315
  273CLF     CX  273   2.637   3.548   0.768  0.3510  0.0783  0.1355
  274CLF     CX  274   7.150   5.984   3.732  0.0148 -0.0696 -0.0345
  275CLF     CX  275   7.007   0.586   6.849  0.1730  0.0542 -0.0968
  276CLF     CX  276   4.884   0.550   6.871  0.0305 -0.0022 -0.1469
  277CLF     CX  277   2.698   2.167   1.994  0.2389 -0.0922  0.0734
  278CLF     CX  278   4.683   2.042   1.032 -0.0351  0.0008  0.1202
  279CLF     CX  279   1.801   6.129   6.091  0.2968  0.0328  0.0215
  280CLF     CX  280   6.557   0.088   3.492  0.1048  0.0552  0.3258
  281CLF     CX  281   0.958   0.512   5.437  0.1010  0.1243  0.0552
  282CLF     CX  282   1.810   3.402   1.186 -0.0449 -0.2049  0.3868
  283CLF     CX  283   2.280   2.868   0.419 -0.0952 -0.1726  0.0802
  284CLF     CX  284   2.348   0.973   2.082 -0.2076  0.0153 -0.5027
  285CLF     CX  285   2.425   1.374   3.613  0.1243 -0.0484 -0.3768
  286CLF     CX  286   3.550   1.945   0.692 -0.2607 -0.1722 -0.3632
  287CLF     CX  287   4.089   0.595   4.601 -0.0639 -0.0060 -0.0502
  288CLF     CX  288   6.190   1.317   1.619  0.1963  0.1233 -0.2339
  289CLF     CX  289   2.584   1.734   4.066  0.1095 -0.1782  0.2406
  290CLF     CX  290   0.083   3.456   5.889  0.1174  0.3283  0.0073
  291CLF     CX  291   2.116   3.945   4.489  0.1083  0.0698  0.2425
  292CLF     CX  292   0.467   1.367   6.654 -0.1539 -0.0476 -0.0571
  293CLF     CX  293   4.017   3.376   1.791  0.1317 -0.0755  0.1515
  294CLF     CX  294   3.477   3.667   0.043  0.1789 -0.0006 -0.0594
  295CLF     CX  295   5.984   0.307   3.518 -0.2654 -0.1227  0.3359
  296CLF     CX  296   0.129   6.109   2.354  0.1087  0.0618 -0.0102
  297CLF     CX  297   6.371   4.770   5.870  0.0858 -0.0056 -0.2941
  298CLF     CX  298   2.977   3.615   5.877  0.0426  0.1364 -0.2858
  299CLF     CX  299   5.254   0.906   2.434 -0.0118  0.1151  0.1763
  300CLF     CX  300   6.673   6.774   6.809  0.0572 -0.1862 -0.1389
  301CLF     CX  301   5.661   1.861   7.105  0.2005  0.0576 -0.0343
  302CLF     CX  302   2.636   4.011   5.438 -0.0189  0.2070  0.2779
  303CLF     CX  303   7.017   0.761   2.452  0.4204  0.2288  0.0680
  304CLF     CX  304   5.407   3.795   6.144 -0.0370  0.2734 -0.1784
  305CLF     CX  305   7.015   0.658   0.977 -0.2541 -0.0969  0.4470
  306CLF     CX  306   2.099   1.841   3.791  0.2688  0.0254  0.1452
  307CLF     CX  307   5.909   7.047   0.378 -0.3196  0.0424  0.0044
  308CLF     CX  308   5.680   4.945   1.529  0.0820  0.1490  0.0091
  309CLF     CX  309   0.305   5.024   2.815 -0.0931 -0.2503 -0.0164
  310CLF     CX  310   6.237   0.432   1.257 -0.0602 -0.0083  0.2266
  311CLF     CX  311   1.330   4.266   0.632  0.1026 -0.0144  0.0019
  312CLF     CX  312   0.726   2.498   1.753 -0.1894  0.4035  0.1034
  313CLF     CX  313   6.247   1.654   3.500  0.0499 -0.3080 -0.1653
  314CLF     CX  314   2.711   5.862   4.078 -0.1855  0.1745  0.1209
  315CLF     CX  315   1.438   7.023   1.624  0.1098  0.3287  0.2525
  316CLF     CX  316   2.133   5.147   6.117 -0.0656 -0.2315  0.0655
  317CLF     CX  317   4.146   0.077   6.941 -0.3503  0.0472  0.0905
  318CLF     CX  318   5.542   7.080   4.785 -0.1523 -0.0805 -0.1804
  319CLF     CX  319   0.466   5.903   6.652 -0.0460 -0.0012  0.2073
  320CLF     CX  320   4.301   3.096   6.123 -0.2816  0.0371 -0.2694
  321CLF     CX  321   4.163   0.723   4.138 -0.2178  0.1771 -0.0859
  322CLF     CX  322   1.497   7.124   2.128 -0.1630  0.1369  0.3440
  323CLF     CX  323   6.467   1.620   2.207 -0.0244 -0.1468 -0.1628
  324CLF     CX  324   0.498   1.779   2.991 -0.0654  0.2879 -0.2035
  325CLF     CX  325   3.622   0.394   4.660 -0.0550 -0.1428 -0.0680
  326CLF     CX  326   0.242   1.923   5.904 -0.2339 -0.2091 -0.3847
  327CLF     CX  327   7.049   4.172   1.866 -0.2101 -0.0824  0.1153
  328CLF     CX  328   5.593   1.174   4.308 -0.1568 -0.2235 -0.0668
  329CLF     CX  329   4.977   2.481   3.931 -0.1650  0.0092 -0.1588
  330CLF     CX  330   4.177   5.749   0.483  0.1077 -0.0846  0.1865
  331CLF     CX  331   4.762   2.415   1.389 -0.0459 -0.0404 -0.1496
  332CLF     CX  332   7.157   4.379   5.305 -0.0740 -0.2221  0.4013
  333CLF     CX  333   0.873   7.040   0.576 -0.2581  0.0548 -0.2303
  334CLF     CX  334   4.593   5.318   5.908 -0.0939  0.2919 -0.0683
  335CLF     CX  335   6.854   1.160   7.034  0.4070  0.1556 -0.0641
  336CLF     CX  336   1.206   0.135   5.809  0.1214  0.0901 -0.1279
  337CLF     CX  337   1.463   5.672   3.848  0.1166  0.0490 -0.2442
  338CLF     CX  338   4.777   1.351   0.284 -0.2022  0.1991 -0.2328
  339CLF     CX  339   1.591   2.611   5.363 -0.0056 -0.2545  0.1127
  340CLF     CX  340   3.289   0.775   5.909 -0.2728 -0.1151  0.1739
  341CLF     CX  341   1.642   0.500   2.810 -0.3825 -0.0602  0.2296
  342CLF     CX  342   1.218   1.130   6.862 -0.2780  0.0416 -0.1760
  343CLF     CX  343   3.320   5.677   3.532  0.3456 -0.0811 -0.2826
  344CLF     CX  344   1.432   4.432   4.944  0.0912 -0.3651  0.1876
  345CLF     CX  345   1.714   4.950   1.347  0.0089  0.0188  0.1083
  346CLF     CX  346   3.949   0.574   3.525  0.1889 -0.0841 -0.1720
  347CLF     CX  347   1.365   3.702   2.430 -0.0808 -0.0390  0.0433
  348CLF     CX  348   0.076   3.098   0.743  0.3020  0.0592  0.1098
  349CLF     CX  349   3.903   0.402   0.145  0.1299 -0.0304  0.1126
  350CLF     CX  350   0.347   2.005   6.504 -0.0871  0.2497 -0.0996
  351CLF     CX  351   0.480   0.474   5.629  0.0498 -0.1765  0.1997
  352CLF     CX  352   3.080   4.295   5.359  0.1399  0.1139 -0.1565
  353CLF     CX  353   6.405   4.733   4.122  0.0087 -0.1504  0.2118
  354CLF     CX  354   6.068   6.793   1.258  0.2997  0.2798  0.0723
  355CLF     CX  355   0.940   5.820   3.935  0.3659  0.0475  0.2103
  356CLF     CX  356   0.553   4.100   0.505 -0.0777 -0.1067  0.1773
  357CLF     CX  357   2.207   0.210   0.737 -0.1218 -0.1155 -0.0861
  358CLF     CX  358   5.004   4.640   5.164  0.2609 -0.0798  0.1497
  359CLF     CX  359   4.548   3.713   4.912  0.0663 -0.2048 -0.1280
  360CLF     CX  360   4.823   2.972   5.689  0.1262 -0.1179 -0.0368
  361CLF     CX  361   4.975   5.260   3.267 -0.2111  0.0118 -0.2755
  362CLF     CX  362   0.787   0.473   4.624 -0.0709 -0.1561 -0.2458
  363CLF     CX  363   4.682   6.437   5.976 -0.0517  0.0860 -0.1482
  364CLF     CX  364   2.528   5.876   1.568  0.1032 -0.0727 -0.0996
  365CLF     CX  365   5.283   0.033   5.587 -0.0476 -0.1241 -0.0237
  366CLF     CX  366   6.674   0.552   5.804 -0.1567 -0.1296  0.0473
  367CLF     CX  367   6.935   7.031   0.430 -0.1320 -0.2494 -0.0787
  368CLF     CX  368   6.501   1.029   5.761 -0.2314 -0.2445 -0.1077
  369CLF     CX  369   0.993   0.021   5.116  0.0236 -0.2082 -0.1378
  370CLF     CX  370   5.003   2.232   4.687 -0.4036 -0.2591 -0.1802
  371CLF     CX  371   0.034   2.985   2.739 -0.1240 -0.0956 -0.2178
  372CLF     CX  372   6.459   6.608   1.422 -0.0579  0.0394  0.2471
  373CLF     CX  373   4.850   5.402   0.624 -0.0176 -0.2086  0.1319
  374CLF     CX  374   2.849   2.901   4.493  0.1939 -0.1869 -0.3893
  375CLF     CX  375   2.783   3.310   6.558  0.0420  0.1515 -0.0602
  376CLF     CX  376   1.062   2.964   1.168  0.1536 -0.0736 -0.1446
  377CLF     CX  377   1.337   0.172   3.211 -0.0641  0.2971  0.0202
  378CLF     CX  378   4.047   2.800   5.831  0.0393  0.2127 -0.0113
  379CLF     CX  379   0.067   0.144   5.615  0.1123 -0.1809  0.1037
  380CLF     CX  380   2.401   4.741   5.140  0.1582 -0.2381  0.2722
  381CLF     CX  381   6.504   1.513   5.774  0.2188 -0.0734  0.0512
  382CLF     CX  382   4.681   7.146   5.900 -0.2541  0.0766 -0.1121
  383CLF     CX  383   2.376   3.448   6.797 -0.3340  0.0230  0.0814
  384CLF     CX  384   5.992   6.751   2.662  0.1155 -0.0740 -0.1602
  385CLF     CX  385   0.780   1.117   2.059  0.2629  0.2337  0.4021
  386CLF     CX  386   6.774   3.532   6.100 -0.0216  0.0758  0.1318
  387CLF     CX  387   1.404   6.044   5.326  0.2028 -0.1961 -0.1167
  388CLF     CX  388   5.093   1.646   0.143 -0.4252  0.0059 -0.5031
  389CLF     CX  389   6.742   6.101   5.602 -0.1487  0.4296  0.1407
  390CLF     CX  390   6.124   4.578   1.869 -0.2273 -0.0356  0.0854
  391CLF     CX  391   5.402   4.341   4.337  0.1029 -0.0130 -0.1092
  392CLF     CX  392   2.004   6.359   1.209 -0.0465 -0.3296  0.1972
  393CLF     CX  393   2.670   6.719   0.373 -0.0719 -0.3016 -0.1677
  394CLF     CX  394   5.555   3.827   2.960  0.3612  0.0259  0.1409
  395CLF     CX  395   5.366   2.992   5.293 -0.1430  0.1679  0.0738
  396CLF     CX  396   3.770   0.196   3.813 -0.1092  0.1369  0.0560
  397CLF     CX  397   0.374   2.404   6.151 -0.0873  0.2289  0.0208
  398CLF     CX  398   3.480   5.845   2.579 -0.0696 -0.0637  0.1123
  399CLF     CX  399   3.465   6.369   5.426  0.0876  0.1664 -0.0657
  400CLF     CX  400   1.020   1.127   0.227 -0.1169  0.1413 -0.1906
  401CLF     CX  401   1.312   4.258   2.217  0.0864  0.1928  0.1366
  402CLF     CX  402   1.850   7.017   5.612 -0.0590  0.1240 -0.0420
  403CLF     CX  403   7.064   2.015   6.983 -0.0491  0.0108 -0.0479
  404CLF     CX  404   7.063   6.438   4.603 -0.2947  0.0174  0.2146
  405CLF     CX  405   4.812   0.715   6.358  0.1198  0.1769 -0.0477
  406CLF     CX  406   3.081   3.872   2.499 -0.1516  0.0458 -0.3844
  407CLF     CX  407   4.510   0.617   5.950  0.3956 -0.1817  0.0258
  408CLF     CX  408   0.719   5.868   0.845  0.2726 -0.1075 -0.0923
  409CLF     CX  409   6.096   5.893   6.284 -0.2167 -0.2877  0.1332
  410CLF     CX  410   3.119   0.151   6.671 -0.1136 -0.0044 -0.2994
  411CLF     CX  411   0.919   5.321   3.841  0.1226  0.1883 -0.2435
  412CLF     CX  412   3.338   1.550   2.656 -0.0905 -0.1113  0.0645
  413CLF     CX  413   3.864   2.907   0.936 -0.0181  0.0131  0.2193
  414CLF     CX  414   3.806   6.200   5.995 -0.0336  0.0748 -0.0855
  415CLF     CX  415   5.552   0.796   1.769 -0.0558  0.2536 -0.0042
  416CLF     CX  416   2.198   2.926   3.409 -0.1669 -0.2915  0.0901
  417CLF     CX  417   2.149   4.163   6.291  0.1275  0.0599  0.1152
  418CLF     CX  418   0.925   0.776   2.485 -0.0979 -0.4252 -0.1196
  419CLF     CX  419   3.794   3.264   3.981  0.3573  0.0970  0.1645
  420CLF     CX  420   3.400   6.924   6.713  0.0548 -0.3132 -0.3287
  421CLF     CX  421   1.530   4.774   0.779 -0.0017  0.1336  0.0048
  422CLF     CX  422   0.296   6.454   0.106 -0.2690 -0.0736 -0.0907
  423CLF     CX  423   3.354   0.209   2.742 -0.0719 -0.0538  0.1981
  424CLF     CX  424   6.596   6.089   6.452 -0.1441  0.1096 -0.1163
  425CLF     CX  425   2.019   6.058   4.648 -0.1722  0.2249  0.0139
  426CLF     CX  426   0.563   4.549   2.887 -0.1858 -0.0377  0.1683
  427CLF     CX  427   4.478   0.870   0.289 -0.0992  0.1119  0.0335
  428CLF     CX  428   1.669   3.230   6.950 -0.0248 -0.0617 -0.3101
  429CLF     CX  429   0.644   2.051   2.467 -0.0980 -0.1577  0.1179
  430CLF     CX  430   4.673   1.009   2.345  0.3871  0.0514 -0.0363
  431CLF     CX  431   1.380   1.164   3.162  0.2113  0.4816 -0.2786
  432CLF     CX  432   0.651   1.455   1.697 -0.2021  0.3941 -0.1537
  433CLF     CX  433   1.567   0.135   3.983 -0.0159 -0.0712 -0.0045
  434CLF     CX  434   6.168   4.220   4.308  0.2386 -0.0264 -0.1761
  435CLF     CX  435   1.802   2.951   3.842 -0.4917 -0.1257  0.1082
  436CLF     CX  436   0.430   0.000   2.086 -0.0993  0.2318  0.0037
  437CLF     CX  437   2.702   1.027   0.617 -0.0122 -0.0103 -0.0420
  438CLF     CX  438   3.983   6.423   1.194 -0.0037  0.2198 -0.0712
  439CLF     CX  439   5.340   6.980   1.051 -0.3703 -0.0616 -0.4643
  440CLF     CX  440   2.244   4.354   1.364  0.2037 -0.3766 -0.2849
  441CLF     CX  441   2.641   5.125   6.706  0.0410  0.1510 -0.0578
  442CLF     CX  442   6.888   5.253   6.956 -0.3088 -0.2346 -0.3430
  443CLF     CX  443   4.976   4.117   4.977 -0.1560 -0.0209  0.0636
  444CLF     CX  444   4.568   4.259   4.790  0.3293 -0.3038 -0.1129
  445CLF     CX  445   0.413   2.319   3.252  0.2243  0.1706 -0.0438
  446CLF     CX  446   0.248   7.125   6.343 -0.0141  0.0484  0.0529
  447CLF     CX  447   3.918   6.821   5.911  0.1132  0.1692 -0.1256
  448CLF     CX  448   4.765   0.429   2.816  0.3322  0.0236 -0.1649
  449CLF     CX  449   6.943   5.740   0.586 -0.1721 -0.0162 -0.1176
  450CLF     CX  450   4.825   5.124   3.742  0.0834  0.1510  0.1384
  451CLF     CX  451   2.485   1.151   2.579 -0.1393 -0.2968  0.4376
  452CLF     CX  452   3.320   3.069   3.527 -0.0582  0.0439  0.2266
  453CLF     CX  453   6.838   0.057   2.236  0.2074  0.1568  0.2516
  454CLF     CX  454   0.409   5.486   6.394 -0.2870 -0.0410 -0.2724
  455CLF     CX  455   4.032   1.632   1.460  0.1956 -0.1414 -0.0020
  456CLF     CX  456   7.140   4.425   6.241 -0.1196 -0.0831  0.0733
  457CLF     CX  457   2.290   6.537   3.466  0.0439 -0.0851  0.1301
  458CLF     CX  458   3.243   5.442   2.209 -0.0395 -0.1007  0.0707
  459CLF     CX  459   3.003   2.472   6.707 -0.1650  0.2109  0.0874
  460CLF     CX  460   0.966   0.827   0.676 -0.1766  0.1948  0.3458
  461CLF     CX  461   0.846   0.517   1.377 -0.1963 -0.0183 -0.1263
  462CLF     CX  462   4.678   0.207   4.560  0.2400 -0.2560  0.0265
  463CLF     CX  463   2.122   6.699   4.316 -0.3104  0.0322 -0.2223
  464CLF     CX  464   3.186   4.430   4.184  0.1079 -0.0388  0.0976
  465CLF     CX  465   6.547   4.077   3.944 -0.0465 -0.0074 -0.0056
  466CLF     CX  466   1.060   4.986   4.795  0.0067  0.0292  0.1112
  467CLF     CX  467   3.818   2.935   2.626 -0.1257 -0.2029  0.2143
  468CLF     CX  468   4.465   6.400   0.825 -0.2469 -0.0114 -0.0507
  469CLF     CX  469   2.649   1.707   4.555 -0.4097  0.1779 -0.2009
  470CLF     CX  470   0.868   1.297   5.764  0.0168 -0.1161  0.1139
  471CLF     CX  471   0.557   6.395   6.748  0.1310 -0.1910  0.1955
  472CLF     CX  472   4.227   0.098   5.848  0.0794  0.0119 -0.0845
  473CLF     CX  473   3.198   0.716   2.000  0.1822 -0.1377  0.0620
  474CLF     CX  474   4.993   1.987   0.498 -0.2950 -0.0074 -0.2096
  475CLF     CX  475   6.533   5.576   6.469  0.0863  0.0518 -0.2959
  476CLF     CX  476   1.833   0.380   0.074 -0.0755  0.1389  0.2126
  477CLF     CX  477   0.534   3.450   5.326 -0.1261  0.1323 -0.2832
  478CLF     CX  478   1.673   5.175   6.002 -0.0514 -0.1410 -0.1213
  479CLF     CX  479   3.038   0.388   3.186  0.1900 -0.3262 -0.1224
  480CLF     CX  480   4.398   3.156   0.956  0.1133  0.0375  0.0154
  481CLF     CX  481   5.034   4.297   1.644 -0.1675 -0.1399  0.0158
  482CLF     CX  482   2.355   4.150   0.954  0.0823  0.0638  0.0644
  483CLF     CX  483   1.927   2.009   0.534  0.0803 -0.0373 -0.0276
  484CLF     CX  484   4.696   6.482   3.737  0.0884  0.1238  0.1118
  485CLF     CX  485   6.071   3.653   0.759  0.1922 -0.0738  0.0519
  486CLF     CX  486   0.163   1.284   5.812 -0.0346 -0.2169  0.0938
  487CLF     CX  487   2.135   2.283   6.160 -0.0196  0.3662 -0.1321
  488CLF     CX  488   2.098   3.120   0.002  0.0486  0.4955 -0.1546
  489CLF     CX  489   4.862   6.873   6.328  0.1730  0.0586 -0.0827
  490CLF     CX  490   3.433   4.037   3.353  0.2732  0.1525  0.0531
  491CLF     CX  491   4.105   0.896   0.620  0.0158 -0.0329 -0.0880
  492CLF     CX  492   6.960   0.299   0.251  0.0140  0.1157  0.3092
  493CLF     CX  493   0.914   0.064   1.658  0.2053  0.2661 -0.2002
  494CLF     CX  494   4.028   4.382   0.136  0.2627 -0.0244 -0.3877
  495CLF     CX  495   6.010   6.677   3.197  0.0635 -0.0709  0.0430
  496CLF     CX  496   7.057   2.507   3.168 -0.1823  0.0169  0.0740
  497CLF     CX  497   4.949   4.566   0.557 -0.0401 -0.1177 -0.1948
  498CLF     CX  498   0.200   5.140   5.791  0.2114 -0.3816 -0.0663
  499CLF     CX  499   4.491   6.449   4.213 -0.2635 -0.0712 -0.3454
  500CLF     CX  500   2.467   5.948   5.928  0.0268  0.0558  0.0022
  501CLF     CX  501   0.299   6.654   4.741  0.1583  0.1548 -0.2764
  502CLF     CX  502   4.143   4.255   3.007 -0.3014  0.2762  0.1229
  503CLF     CX  503   5.389   3.224   5.922  0.1739  0.1893 -0.0478
  504CLF     CX  504   6.451   5.195   1.124 -0.1379 -0.1166 -0.2473
  505CLF     CX  505   3.199   6.359   1.862 -0.2832  0.4824 -0.1794
  506CLF     CX  506   1.222   0.741   2.869 -0.1699 -0.0540 -0.0877
  507CLF     CX  507   0.397   3.132   3.842  0.2263  0.1614  0.1501
  508CLF     CX  508   2.689   2.989   0.856  0.2367  0.0918 -0.0380
  509CLF     CX  509   6.607   3.567   5.605 -0.0955  0.0071  0.2137
  510CLF     CX  510   2.402   5.145   1.800  0.2065  0.0629  0.0305
  511CLF     CX  511   2.666   4.854   4.018 -0.4095 -0.0793 -0.1357
  512CLF     CX  512   2.272   1.650   1.420  0.0050 -0.1414  0.1163
  513CLF     CX  513   0.416   3.801   6.696  0.2489  0.2898  0.0726
  514CLF     CX  514   3.094   2.138   3.233 -0.1591  0.1242  0.0049
  515CLF     CX  515   1.195   2.708   5.108 -0.0109 -0.0697 -0.1536
  516CLF     CX  516   6.386   1.126   2.128 -0.2674 -0.1925  0.1050
  517CLF     CX  517   2.000   3.580   4.851  0.5569  0.1441  0.0269
  518CLF     CX  518   4.732   2.459   0.876 -0.0992 -0.0482 -0.0958
  519CLF     CX  519   1.657   4.121   4.466  0.0030  0.3724 -0.2012
  520CLF     CX  520   3.384   1.461   1.009  0.0485  0.0995 -0.2044
  521CLF     CX  521   0.068   5.089   2.315  0.0491 -0.3247 -0.2761
  522CLF     CX  522   2.552   1.925   0.573 -0.0030 -0.3681 -0.1430
  523CLF     CX  523   1.380   1.100   5.052  0.3718  0.0268  0.1088
  524CLF     CX  524   2.777   3.993   0.140 -0.4152 -0.1394  0.0195
  525CLF     CX  525   0.394   0.708   2.445  0.0313 -0.0201  0.3194
  526CLF     CX  526   5.106   4.066   2.121 -0.0086  0.2089 -0.1874
  527CLF     CX  527   7.088   1.902   4.195 -0.0659  0.2656 -0.1146
  528CLF     CX  528   5.688   4.953   5.343 -0.1008  0.1871  0.3132
  529CLF     CX  529   5.664   0.128   6.895 -0.0830 -0.2375  0.1714
  530CLF     CX  530   0.756   3.494   2.754 -0.0155 -0.3437 -0.0748
  531CLF     CX  531   5.031   3.565   4.644  0.0755  0.0253 -0.0803
  532CLF     CX  532   0.692   1.771   1.317  0.4242 -0.1053 -0.2274
  533CLF     CX  533   1.266   5.447   0.713  0.1401  0.2251 -0.0483
  534CLF     CX  534   6.190   5.614   3.030  0.0916 -0.1594 -0.3256
  535CLF     CX  535   4.906   2.061   5.845 -0.0874 -0.1429  0.1271
  536CLF     CX  536   4.499   4.858   6.071  0.2323  0.0365 -0.3444
  537CLF     CX  537   3.513   4.197   3.887 -0.0034  0.0685  0.2289
  538CLF     CX  538   4.977   2.455   6.744  0.2124 -0.0244 -0.0890
  539CLF     CX  539   4.287   6.284   3.458  0.2036  0.0776 -0.1956
  540CLF     CX  540   4.378   6.232   5.696  0.0643 -0.0220  0.1371
  541CLF     CX  541   4.374   1.915   4.146  0.1835  0.1882  0.0726
  542CLF     CX  542   6.421   3.939   1.694  0.2309 -0.2111 -0.1511
  543CLF     CX  543   5.098   1.612   3.343 -0.4131 -0.0234  0.1572
  544CLF     CX  544   3.929   6.614   2.403  0.1424  0.3672 -0.2004
  545CLF     CX  545   1.042   4.569   1.685  0.0478 -0.5403  0.0845
  546CLF     CX  546   6.564   6.539   4.628  0.0225 -0.3200 -0.2322
  547CLF     CX  547   1.199   4.671   0.398  0.5038 -0.1143  0.0810
  548CLF     CX  548   3.232   4.475   1.712  0.3349  0.0070 -0.0730
  549CLF     CX  549   6.706   2.734   5.118  0.1979  0.1122 -0.1052
  550CLF     CX  550   5.025   5.598   3.590 -0.3942 -0.1310 -0.1919
  551CLF     CX  551   5.864   2.445   3.095 -0.0403 -0.0750 -0.3031
  552CLF     CX  552   6.055   2.194   1.814  0.0758  0.0730 -0.1780
  553CLF     CX  553   4.891   5.522   6.841 -0.2172 -0.0850  0.0772
  554CLF     CX  554   3.724   4.620   3.102  0.1281  0.1874  0.1145
  555CLF     CX  555   3.205   0.361   5.643  0.0133  0.1808 -0.1290
  556CLF     CX  556   3.052   5.063   6.952  0.0809 -0.1811 -0.0735
  557CLF     CX  557   3.788   0.554   6.031  0.1029 -0.0992 -0.0896
  558CLF     CX  558   6.639   6.827   0.955 -0.0049 -0.0170 -0.2165
  559CLF     CX  559   4.135   5.230   2.049 -0.0618  0.1162  0.0672
  560CLF     CX  560   6.075   2.669   1.768 -0.1051 -0.1633 -0.0113
  561CLF     CX  561   0.862   3.629   6.606  0.0156  0.1309 -0.0862
  562CLF     CX  562   2.211   2.586   3.826  0.0566 -0.0364 -0.0364
  563CLF     CX  563   2.173   5.441   0.164 -0.0246  0.2028  0.1964
  564CLF     CX  564   7.009   0.202   3.332 -0.0886 -0.0131 -0.1028
  565CLF     CX  565   7.089   6.812   2.527 -0.2209 -0.1070  0.1018
  566CLF     CX  566   2.861   5.672   6.732 -0.1178  0.0451  0.4258
  567CLF     CX  567   2.551   3.372   1.723  0.0766  0.0557  0.1897
  568CLF     CX  568   5.328   1.795   5.706 -0.0569  0.0673  0.3211
  569CLF     CX  569   4.972   2.226   0.063  0.1048  0.1594 -0.0051
  570CLF     CX  570   0.396   3.254   6.800  0.0273 -0.2635  0.0748
  571CLF     CX  571   3.585   2.209   0.192 -0.1180 -0.0785  0.0620
  572CLF     CX  572   1.736   6.443   2.007  0.2108 -0.2856  0.4014
  573CLF     CX  573   1.135   3.302   1.608 -0.0127  0.2477  0.0948
  574CLF     CX  574   1.458   3.286   0.212 -0.2150  0.0500 -0.2978
  575CLF     CX  575   5.714   2.839   1.249  0.1070  0.0071  0.3347
  576CLF     CX  576   0.944   1.092   6.272 -0.1485 -0.0855 -0.0168
  577CLF     CX  577   4.095   5.844   4.910 -0.0546  0.0211  0.1857
  578CLF     CX  578   2.471   6.228   1.101  0.2240  0.2084  0.0907
  579CLF     CX  579   6.628   4.759   2.325 -0.3462  0.0203  0.3628
  580CLF     CX  580   0.473   6.520   3.458 -0.0757  0.2681 -0.1801
  581CLF     CX  581   2.793   4.448   1.333 -0.5371 -0.2360 -0.2919
  582CLF     CX  582   0.502   6.162   3.853  0.1644 -0.0684  0.1867
  583CLF     CX  583   1.235   5.118   6.187  0.1769  0.0333 -0.1925
  584CLF     CX  584   6.541   5.621   5.189  0.1518 -0.1679  0.1906
  585CLF     CX  585   5.239   2.972   0.398 -0.1208 -0.0693  0.1358
  586CLF     CX  586   6.966   3.673   1.987 -0.3525 -0.0530  0.2414
  587CLF     CX  587   4.194   5.805   4.073 -0.1591 -0.1391 -0.3061
  588CLF     CX  588   1.972   3.899   3.032 -0.3274 -0.0680 -0.0978
  589CLF     CX  589   4.740   6.380   6.499  0.0634  0.3632 -0.1625
  590CLF     CX  590   5.855   4.125   3.294  0.2344  0.4492 -0.1129
  591CLF     CX  591   1.694   0.689   1.404 -0.1020  0.2036 -0.1107
  592CLF     CX  592   5.614   3.233   0.379 -0.0829 -0.3209  0.0380
  593CLF     CX  593   0.551   0.018   1.214  0.3087  0.2276  0.1710
  594CLF     CX  594   0.736   5.343   1.760 -0.0655 -0.2054  0.0453
  595CLF     CX  595   5.467   0.748   5.662 -0.0319  0.1290  0.1474
  596CLF     CX  596   2.842   5.450   1.801 -0.0471  0.0186 -0.1140
  597CLF     CX  597   3.549   1.312   5.635  0.0125 -0.1590 -0.0765
  598CLF     CX  598   6.153   5.642   5.531  0.1550  0.0716 -0.2226
  599CLF     CX  599   4.418   3.913   3.449 -0.2460  0.0694 -0.0181
  600CLF     CX  600   3.104   6.848   0.551 -0.2260 -0.0020  0.0195
  601CLF     CX  601   0.780   6.558   2.108  0.3429  0.0915  0.0611
  602CLF     CX  602   0.658   1.740   0.295  0.0498  0.0920  0.2048
  603CLF     CX  603   1.119   1.898   1.013 -0.1350  0.0644  0.1184
  604CLF     CX  604   4.994   3.831   5.851  0.1593  0.2602 -0.1469
  605CLF     CX  605   1.615   4.895   3.299  0.1112  0.0713  0.1810
  606CLF     CX  606   6.615   1.735   0.530  0.2216 -0.2007 -0.0075
  607CLF     CX  607   6.622   5.302   6.022  0.0945 -0.2106 -0.0850
  608CLF     CX  608   2.537   0.249   1.092  0.2124  0.0005 -0.1809
  609CLF     CX  609   3.949   3.664   0.254  0.0191 -0.2133  0.0025
  610CLF     CX  610   1.907   1.296   5.796 -0.1173  0.0472  0.1099
  611CLF     CX  611   3.411   2.208   1.185  0.1857  0.1789 -0.1455
  612CLF     CX  612   1.749   7.026   4.417 -0.3660 -0.2660 -0.1384
  613CLF     CX  613   1.490   1.570   2.762 -0.0267 -0.0787 -0.0329
  614CLF     CX  614   5.082   5.946   1.658 -0.0992  0.2012 -0.1303
  615CLF     CX  615   0.856   4.358   6.396 -0.2333 -0.2726  0.1680
  616CLF     CX  616   1.364   1.696   3.288 -0.2247 -0.1129 -0.0155
  617CLF     CX  617   2.957   2.594   1.880  0.1059  0.0906 -0.0151
  618CLF     CX  618   4.876   5.517   1.608 -0.1318 -0.0465 -0.1469
  619CLF     CX  619   0.194   4.603   5.770 -0.2462 -0.1401 -0.0379
  620CLF     CX  620   1.549   0.940   6.454  0.2730 -0.3250  0.2347
  621CLF     CX  621   5.508   2.091   2.288  0.0901 -0.1561 -0.0505
  622CLF     CX  622   5.217   2.221   5.197  0.1664 -0.3186 -0.1790
  623CLF     CX  623   6.145   6.449   2.211 -0.1010 -0.4908 -0.4183
  624CLF     CX  624   0.199   0.767   4.928 -0.2179 -0.1131 -0.1732
  625CLF     CX  625   6.064   4.896   3.714 -0.1767  0.2184 -0.4163
  626CLF     CX  626   5.044   6.334   0.765  0.1817 -0.4543  0.2626
  627CLF     CX  627   6.669   6.324   4.072 -0.1660  0.0886 -0.0436
  628CLF     CX  628   3.208   6.521   1.335 -0.2189 -0.1957  0.2050
  629CLF     CX  629   4.292   2.973   1.917  0.0302  0.1361  0.2229
  630CLF     CX  630   3.414   6.031   0.342 -0.0895  0.1813 -0.1737
  631CLF     CX  631   7.056   5.450   5.061 -0.1106  0.4553 -0.0682
  632CLF     CX  632   4.431   4.517   2.680  0.1325 -0.1509  0.5096
  633CLF     CX  633   0.021   6.546   0.530  0.1168  0.0720  0.2237
  634CLF     CX  634   4.079   2.466   4.082  0.1164  0.2565 -0.0137
  635CLF     CX  635   3.561   4.340   5.724 -0.2574  0.1255 -0.1625
  636CLF     CX  636   6.995   5.464   3.753  0.0521 -0.0683  0.1484
  637CLF     CX  637   3.755   4.001   5.406 -0.0224 -0.0791  0.0300
  638CLF     CX  638   6.535   7.121   1.789 -0.2605  0.1161 -0.0901
  639CLF     CX  639   5.287   2.668   2.072 -0.1776 -0.0162  0.2762
  640CLF     CX  640   5.623   3.066   4.846 -0.0295 -0.0337  0.1098
  641CLF     CX  641   6.098   0.686   2.329 -0.2336  0.0761  0.1698
  642CLF     CX  642   5.149   3.990   0.518  0.0171  0.0076  0.2426
  643CLF     CX  643   2.469   1.350   4.809 -0.0369  0.1079  0.1430
  644CLF     CX  644   2.904   2.892   1.455 -0.0343 -0.4288  0.0631
  645CLF     CX  645   1.821   4.928   5.610  0.1946 -0.2163  0.3021
  646CLF     CX  646   1.656   3.811   5.731  0.0972  0.2922  0.0432
  647CLF     CX  647   1.620   6.578   4.504  0.2483 -0.4783  0.3142
  648CLF     CX  648   1.070   6.122   4.289 -0.2736 -0.2301 -0.2428
  649CLF     CX  649   2.330   2.862   5.962  0.0373  0.1594  0.1299
  650CLF     CX  650   6.551   0.649   3.553  0.2098  0.2439  0.0260
  651CLF     CX  651   0.419   5.651   3.877 -0.1266 -0.4208 -0.0875
  652CLF     CX  652   6.839   6.872   4.210  0.2358 -0.3762  0.1093
  653CLF     CX  653   1.611   7.026   1.096 -0.0397 -0.1925  0.2997
  654CLF     CX  654   6.846   0.229   0.782  0.1158 -0.1396  0.0714
  655CLF     CX  655   6.948   4.394   3.273  0.2364  0.4194  0.0744
  656CLF     CX  656   7.119   0.642   1.485  0.2158 -0.1595  0.0518
  657CLF     CX  657   0.048   2.194   0.534 -0.2096  0.1173 -0.1077
  658CLF     CX  658   1.959   5.369   5.457 -0.4431 -0.1607  0.0447
  659CLF     CX  659   3.975   4.522   5.478  0.1128 -0.2059 -0.1085
  660CLF     CX  660   1.362   6.726   6.698  0.0801 -0.1090 -0.1685
  661CLF     CX  661   6.313   2.941   7.004 -0.3148  0.0436 -0.0599
  662CLF     CX  662   5.892   1.952   5.714  0.0730 -0.1511  0.1523
  663CLF     CX  663   5.124   2.504   2.846  0.1059 -0.0434 -0.1477
  664CLF     CX  664   3.361   1.245   5.139 -0.0073 -0.0559 -0.2107
  665CLF     CX  665   3.213   3.580   3.549 -0.1547 -0.0010 -0.0715
  666CLF     CX  666   2.886   1.709   2.142 -0.2040  0.0015  0.1998
  667CLF     CX  667   4.075   5.808   6.385 -0.2245  0.5526  0.2041
  668CLF     CX  668   1.686   4.457   1.180  0.4708 -0.0180 -0.0657
  669CLF     CX  669   3.496   4.410   6.283  0.2370 -0.0227  0.3387
  670CLF     CX  670   2.772   5.676   2.243 -0.2213 -0.1207  0.2467
  671CLF     CX  671   1.069   1.770   4.815  0.2027  0.4892 -0.2265
  672CLF     CX  672   3.786   2.957   6.304  0.4117 -0.0834  0.1835
  673CLF     CX  673   6.136   0.925   1.270 -0.0191 -0.1185  0.1091
  674CLF     CX  674   3.943   1.048   3.289  0.1517 -0.0314 -0.1396
  675CLF     CX  675   6.803   0.721   4.589 -0.0924 -0.1393 -0.1851
  676CLF     CX  676   3.903   3.929   6.191 -0.0755 -0.1295  0.0476
  677CLF     CX  677   3.826   6.050   2.312  0.1517 -0.3970  0.0942
  678CLF     CX  678   1.219   6.212   2.444  0.3674 -0.2266 -0.1603
  679CLF     CX  679   6.192   1.289   0.445  0.0419 -0.0291 -0.0942
  680CLF     CX  680   5.242   1.113   0.397  0.0444 -0.1236 -0.2641
  681CLF     CX  681   6.856   6.248   6.076 -0.2145 -0.0176  0.0891
  682CLF     CX  682   2.950   6.532   0.006 -0.1338  0.0709 -0.3036
  683CLF     CX  683   6.350   5.996   4.871 -0.1668  0.4836  0.3406
  684CLF     CX  684   4.505   5.452   3.451  0.2464  0.2547 -0.0731
  685CLF     CX  685   6.927   7.150   2.872  0.1543 -0.0804  0.1253
  686CLF     CX  686   0.988   0.822   3.871 -0.1159  0.1823 -0.1203
  687CLF     CX  687   4.529   0.236   6.336  0.0786  0.1077  0.1322
  688CLF     CX  688   1.061   0.740   3.375 -0.2348  0.0675  0.1244
  689CLF     CX  689   1.896   5.768   5.134 -0.2311  0.0889 -0.2495
  690CLF     CX  690   6.798   4.843   3.812  0.0244 -0.0782  0.0824
  691CLF     CX  691   6.905   6.918   4.710  0.1205 -0.0425 -0.2148
  692CLF     CX  692   2.937   6.571   0.878 -0.2091 -0.1713  0.1515
  693CLF     CX  693   5.824   2.208   6.649  0.1399  0.0872  0.1880
  694CLF     CX  694   1.878   5.328   4.235 -0.0765 -0.1831  0.2525
  695CLF     CX  695   1.753   5.608   4.620  0.0821 -0.0335  0.1628
  696CLF     CX  696   3.489   2.489   2.701  0.1774  0.1257  0.0127
  697CLF     CX  697   3.937   3.726   4.982  0.1330 -0.1582 -0.0888
  698CLF     CX  698   6.110   5.609   0.251  0.1460  0.0861  0.1366
  699CLF     CX  699   6.233   1.836   2.685  0.0606  0.0791  0.2073
  700CLF     CX  700   2.377   3.445   0.269  0.1497  0.2778 -0.0212
  701CLF     CX  701   4.141   4.517   3.765  0.0494 -0.0482 -0.0344
  702CLF     CX  702   0.811   4.184   1.832 -0.2252  0.2749 -0.1122
  703CLF     CX  703   4.441   0.521   7.047 -0.2699  0.1093  0.3453
  704CLF     CX  704   4.286   1.795   1.925 -0.0503 -0.0964  0.0660
  705CLF     CX  705   6.732   2.249   2.799  0.1051 -0.1130  0.0269
  706CLF     CX  706   2.367   4.037   2.626  0.1599  0.0536 -0.0186
  707CLF     CX  707   2.530   0.002   3.790  0.0820  0.0580  0.0014
  708CLF     CX  708   5.465   2.362   6.985  0.2806 -0.1516 -0.0275
  709CLF     CX  709   0.237   0.308   4.026 -0.3293  0.0788 -0.2241
  710CLF     CX  710   5.575   2.584   2.659  0.2606 -0.5414 -0.2151
  711CLF     CX  711   2.438   4.489   2.884  0.0977  0.3259  0.2867
  712CLF     CX  712   0.918   1.655   2.345  0.1725  0.0167  0.0202
  713CLF     CX  713   2.017   6.950   0.535 -0.1821  0.2745 -0.1740
  714CLF     CX  714   0.318   2.712   0.415  0.0481  0.1003 -0.2102
  715CLF     CX  715   1.791   0.606   4.900 -0.1994 -0.2207 -0.2126
  716CLF     CX  716   1.654   4.883   5.105 -0.0219  0.0922 -0.0674
  717CLF     CX  717   4.480   7.024   3.912 -0.0482 -0.1258 -0.0562
  718CLF     CX  718   5.766   5.538   4.235  0.4620 -0.2567  0.0873
  719CLF     CX  719   4.425   1.911   5.696  0.0463 -0.1408 -0.1662
  720CLF     CX  720   0.422   3.021   4.404 -0.1279 -0.3607 -0.2751
  721CLF     CX  721   2.751   6.992   6.267  0.1429  0.1684  0.3272
  722CLF     CX  722   2.744   3.668   2.180  0.0977 -0.4525  0.3526
  723CLF     CX  723   3.764   4.703   1.834 -0.1732  0.0698  0.4569
  724CLF     CX  724   0.180   4.897   4.601  0.1833  0.2710  0.0123
  725CLF     CX  725   0.026   5.544   1.291 -0.3356 -0.1371 -0.1037
  726CLF     CX  726   3.999   3.756   1.454  0.0566  0.0651 -0.0004
  727CLF     CX  727   4.832   3.153   5.208  0.1729 -0.1694 -0.1594
  728CLF     CX  728   5.313   5.173   2.470  0.0692  0.0860 -0.1142
  729CLF     CX  729   6.980   2.708   0.614 -0.0747 -0.0055 -0.0483
  730CLF     CX  730   2.226   3.192   6.360 -0.1032 -0.1795  0.0683
  731CLF     CX  731   5.125   4.113   6.977 -0.2387 -0.2026  0.2375
  732CLF     CX  732   5.972   4.440   2.388 -0.1907  0.0596 -0.0771
  733CLF     CX  733   6.986   1.270   4.015 -0.2223  0.0244  0.0429
  734CLF     CX  734   0.474   3.658   2.322  0.2180 -0.0986  0.1724
  735CLF     CX  735   1.214   0.544   4.969  0.1180  0.2455 -0.1441
  736CLF     CX  736   2.024   3.711   6.078  0.0560  0.2487 -0.0756
  737CLF     CX  737   2.549   2.630   2.323  0.1221  0.3067  0.0916
  738CLF     CX  738   2.281   4.956   4.479  0.1330  0.3457 -0.1161
  739CLF     CX  739   5.666   2.996   1.679  0.4536 -0.0486 -0.1845
  740CLF     CX  740   2.857   5.032   4.513 -0.0335 -0.0404 -0.2232
  741CLF     CX  741   5.537   6.588   2.927 -0.0577  0.1447 -0.0740
  742CLF     CX  742   5.636   3.777   0.567  0.0715  0.2181  0.2670
  743CLF     CX  743   5.688   5.232   7.000  0.2397 -0.2735  0.0990
  744CLF     CX  744   2.234   4.403   4.242  0.1066 -0.0642  0.1815
  745CLF     CX  745   2.888   2.854   3.515  0.0912 -0.3190  0.0268
  746CLF     CX  746   3.992   1.117   4.627 -0.0653  0.1736  0.0333
  747CLF     CX  747   0.654   2.880   1.424  0.0381  0.0976  0.2013
  748CLF     CX  748   1.914   3.744   2.537 -0.1898  0.1536 -0.1823
  749CLF     CX  749   6.729   1.155   6.553  0.2261  0.0430 -0.4715
  750CLF     CX  750   3.749   0.058   5.611 -0.2505  0.0915  0.5588
  751CLF     CX  751   4.282   5.040   4.439 -0.2790 -0.0217  0.0556
  752CLF     CX  752   0.884   0.501   5.969 -0.0735 -0.0433  0.3722
  753CLF     CX  753   5.775   3.987   1.030 -0.1258 -0.1171  0.1838
  754CLF     CX  754   5.975   3.371   4.287 -0.1140  0.0380  0.0199
  755CLF     CX  755   1.652   4.265   6.136 -0.1850 -0.1443  0.3657
  756CLF     CX  756   0.194   1.221   1.974 -0.1921 -0.0007  0.2383
  757CLF     CX  757   6.368   4.005   6.201 -0.3081  0.2323 -0.1456
  758CLF     CX  758   1.631   0.297   5.808 -0.2494 -0.1167 -0.3716
  759CLF     CX  759   4.295   2.687   3.313  0.1666 -0.0940  0.0397
  760CLF     CX  760   4.866   2.542   5.046  0.1950  0.2882  0.0344
  761CLF     CX  761   4.478   0.424   5.456 -0.2341  0.0275  0.0089
  762CLF     CX  762   3.939   1.338   6.529  0.2623  0.1725  0.2041
  763CLF     CX  763   0.896   4.981   7.036  0.2039 -0.3111 -0.0736
  764CLF     CX  764   6.521   5.005   6.418  0.0411 -0.4238  0.1819
  765CLF     CX  765   2.392   0.282   6.424 -0.0012  0.1630  0.1686
  766CLF     CX  766   1.314   0.450   3.728 -0.0755  0.2597  0.0025
  767CLF     CX  767   3.866   6.993   2.003  0.2813  0.0217 -0.1163
  768CLF     CX  768   2.646   3.163   2.284  0.0349  0.0239 -0.1478
  769CLF     CX  769   0.899   6.864   5.597 -0.3393  0.4086 -0.2405
  770CLF     CX  770   4.013   5.196   0.452 -0.1402  0.1762 -0.0451
  771CLF     CX  771   5.289   6.962   2.525 -0.1347 -0.0934 -0.1995
  772CLF     CX  772   3.315   5.617   1.702 -0.0848 -0.0924 -0.0096
  773CLF     CX  773   2.110   0.618   1.887 -0.1560  0.0309  0.0903
  774CLF     CX  774   3.552   0.961   4.800  0.0831 -0.2160  0.1155
  775CLF     CX  775   0.140   1.976   1.039 -0.1411  0.4033 -0.1108
  776CLF     CX  776   3.161   0.602   1.501 -0.0966  0.0772 -0.0127
  777CLF     CX  777   6.294   2.045   5.443 -0.2318  0.0566 -0.0257
  778CLF     CX  778   0.447   2.279   5.031 -0.0632 -0.1258 -0.2116
  779CLF     CX  779   6.722   3.244   2.667  0.0314 -0.1602 -0.0190
  780CLF     CX  780   5.127   0.147   4.227 -0.1422 -0.1365  0.2047
  781CLF     CX  781   5.203   4.687   1.459 -0.1503 -0.1411 -0.0766
  782CLF     CX  782   1.916   2.483   0.781 -0.0220  0.2536 -0.0714
  783CLF     CX  783   5.199   1.979   6.870 -0.0305 -0.1434 -0.3056
  784CLF     CX  784   0.810   2.285   2.878  0.2249 -0.0333 -0.1646
  785CLF     CX  785   5.955   4.610   4.182 -0.3552  0.1082 -0.1709
  786CLF     CX  786   2.029   2.478   4.434  0.2565 -0.3523 -0.1660
  787CLF     CX  787   4.707   0.153   3.375  0.0089  0.3199  0.1767
  788CLF     CX  788   7.134   3.748   3.105  0.0356  0.0012 -0.0170
  789CLF     CX  789   1.782   3.681   6.619  0.6410  0.0786 -0.0622
  790CLF     CX  790   5.264   2.218   4.215  0.1303 -0.3662 -0.0224
  791CLF     CX  791   5.452   3.902   3.612 -0.2201  0.0197  0.4483
  792CLF     CX  792   1.274   5.701   1.375 -0.1194 -0.2199 -0.0509
  793CLF     CX  793   4.995   6.730   5.155  0.2120 -0.0821  0.0097
  794CLF     CX  794   4.957   0.880   0.049 -0.3932  0.0594 -0.0127
  795CLF     CX  795   5.250   1.821   4.499 -0.0977  0.1819 -0.1124
  796CLF     CX  796   0.704   0.041   4.044 -0.1633 -0.2183 -0.0084
  797CLF     CX  797   4.422   0.950   3.579 -0.1651 -0.0503 -0.1389
  798CLF     CX  798   4.511   4.851   2.285  0.0902  0.0353 -0.4231
  799CLF     CX  799   5.909   6.768   3.671  0.0313  0.0715 -0.0143
  800CLF     CX  800   2.701   2.878   0.185 -0.0893 -0.0083  0.2616
  801CLF     CX  801   0.065   3.511   3.568  0.1767 -0.3744  0.1699
  802CLF     CX  802   1.225   6.865   4.275 -0.2326  0.1269 -0.2649
  803CLF     CX  803   1.190   5.402   1.770 -0.0834  0.0533 -0.1629
  804CLF     CX  804   1.466   5.708   5.719  0.0299  0.1907 -0.3129
  805CLF     CX  805   5.622   6.123   6.279  0.0848  0.0418  0.1937
  806CLF     CX  806   5.871   0.616   7.096  0.2721  0.0049  0.1356
  807CLF     CX  807   0.096   4.633   0.490 -0.1663 -0.0490 -0.0543
  808CLF     CX  808   6.381   5.279   6.871  0.0038  0.1232 -0.0396
  809CLF     CX  809   1.033   6.917   3.051 -0.0159 -0.2325 -0.2392
  810CLF     CX  810   5.203   6.384   4.588  0.3606 -0.0668  0.1612
  811CLF     CX  811   1.308   2.070   2.791  0.0254 -0.2304 -0.1703
  812CLF     CX  812   4.506   4.146   0.841  0.0450  0.1337  0.0642
  813CLF     CX  813   3.099   0.889   3.135  0.0365  0.1245 -0.0713
  814CLF     CX  814   5.438   6.779   4.126 -0.1425 -0.1002 -0.3045
  815CLF     CX  815   2.550   5.211   3.686  0.1739 -0.1150 -0.1032
  816CLF     CX  816   3.442   6.677   0.250 -0.0142  0.0375  0.0990
  817CLF     CX  817   3.849   7.067   0.303  0.0388  0.2636  0.0094
  818CLF     CX  818   4.379   0.440   2.487 -0.0613 -0.3735 -0.0220
  819CLF     CX  819   4.882   6.189   4.987 -0.0551 -0.2164  0.2637
  820CLF     CX  820   6.697   4.365   7.061 -0.0359 -0.1474  0.2677
  821CLF     CX  821   2.373   3.947   4.952 -0.3078 -0.0124 -0.0454
  822CLF     CX  822   0.842   6.665   0.225  0.0949  0.3256  0.0859
  823CLF     CX  823   5.537   1.606   3.037  0.1855  0.0698 -0.4639
  824CLF     CX  824   0.970   5.432   5.831  0.1071 -0.2044 -0.0733
  825CLF     CX  825   3.319   4.324   2.882 -0.3719  0.1706  0.2094
  826CLF     CX  826   3.410   6.733   5.783  0.0158 -0.3597 -0.2377
  827CLF     CX  827   2.716   4.312   5.030  0.1077  0.0978 -0.1168
  828CLF     CX  828   2.544   6.495   4.725  0.0916 -0.0180 -0.2167
  829CLF     CX  829   2.249   6.402   2.110  0.3246  0.1034 -0.4217
  830CLF     CX  830   5.675   1.282   5.574  0.3221 -0.0338  0.0223
  831CLF     CX  831   0.476   5.670   0.477 -0.0086  0.1020  0.0390
  832CLF     CX  832   1.988   2.145   1.217  0.1952 -0.0487 -0.1494
  833CLF     CX  833   5.879   5.814   5.010 -0.0278  0.1684  0.0441
  834CLF     CX  834   5.117   3.078   4.710 -0.0417 -0.1584 -0.0706
  835CLF     CX  835   3.496   0.264   5.123 -0.1738 -0.0637  0.2034
  836CLF     CX  836   2.076   5.910   0.493 -0.0943  0.0875 -0.1004
  837CLF     CX  837   1.474   1.600   3.823  0.0401  0.0470 -0.0780
  838CLF     CX  838   4.850   2.694   2.485 -0.1572  0.2403  0.1109
  839CLF     CX  839   3.756   2.386   5.805  0.1720  0.2948  0.0085
  840CLF     CX  840   0.372   0.122   4.804 -0.0197  0.3629 -0.2404
  841CLF     CX  841   5.631   6.565   4.712  0.0401  0.3627  0.2591
  842CLF     CX  842   6.950   5.761   4.301 -0.0994 -0.1879 -0.0939
  843CLF     CX  843   3.573   5.380   6.189  0.1043 -0.0125  0.2690
  844CLF     CX  844   2.062   4.854   4.012 -0.2339 -0.0194  0.0732
  845CLF     CX  845   3.761   6.879   4.054  0.1967  0.1066  0.1267
  846CLF     CX  846   2.876   1.990   6.852 -0.4037 -0.1473 -0.2106
  847CLF     CX  847   4.199   6.830   1.076 -0.0548 -0.2062  0.0135
  848CLF     CX  848   6.950   5.191   0.510 -0.0054  0.3058  0.0310
  849CLF     CX  849   0.394   5.645   5.868  0.0375 -0.0252  0.0874
  850CLF     CX  850   5.005   2.510   5.693 -0.1578  0.2467  0.0721
  851CLF     CX  851   5.135   5.092   6.770  0.3109 -0.1760 -0.0288
  852CLF     CX  852   6.861   3.844   4.665  0.0079  0.2630 -0.3359
  853CLF     CX  853   6.355   1.176   3.670  0.0414 -0.0046  0.0782
  854CLF     CX  854   0.829   5.251   0.494 -0.0397 -0.1515  0.0494
  855CLF     CX  855   0.775   4.978   3.163 -0.0163 -0.0068 -0.2359
  856CLF     CX  856   2.186   6.813   3.831 -0.4365 -0.2202 -0.0570
  857CLF     CX  857   6.059   4.633   5.235 -0.0115  0.0965 -0.1056
  858CLF     CX  858   3.792   1.050   2.003  0.3057 -0.0611  0.1152
  859CLF     CX  859   5.356   5.892   4.294  0.2618 -0.0813  0.0436
  860CLF     CX  860   2.336   5.652   4.715 -0.1716 -0.0418 -0.0799
  861CLF     CX  861   0.093   2.215   3.788  0.0379 -0.1627  0.2500
  862CLF     CX  862   1.543   2.388   2.512  0.1297 -0.0377  0.1420
  863CLF     CX  863   3.246   6.030   1.355 -0.1015 -0.0584 -0.0130
  864CLF     CX  864   2.975   1.293   6.849 -0.0706  0.0442  0.3267
  865CLF     CX  865   1.560   2.331   4.548 -0.2385 -0.0159  0.2386
  866CLF     CX  866   2.915   2.877   6.307 -0.1493  0.1235  0.0209
  867CLF     CX  867   4.209   6.894   5.261  0.2600  0.2420 -0.1070
  868CLF     CX  868   2.826   1.539   0.422 -0.1013  0.3238  0.2034
  869CLF     CX  869   1.905   1.531   6.663  0.0555 -0.0275 -0.0421
  870CLF     CX  870   2.859   4.598   5.759  0.0710  0.1539 -0.3028
  871CLF     CX  871   1.001   4.945   0.819  0.2674 -0.1951  0.1217
  872CLF     CX  872   3.926   5.605   4.500  0.0390  0.1358  0.1990
  873CLF     CX  873   2.635   6.905   4.348  0.0965  0.0014  0.1163
  874CLF     CX  874   0.374   3.961   4.032  0.1587 -0.0536  0.1724
  875CLF     CX  875   6.412   0.100   2.583 -0.1834 -0.3972 -0.2656
  876CLF     CX  876   4.173   3.620   4.244 -0.2585 -0.2037  0.2147
  877CLF     CX  877   0.454   3.066   4.929 -0.0341 -0.0707  0.1379
  878CLF     CX  878   4.177   3.086   3.015  0.0351  0.2109  0.1481
  879CLF     CX  879   5.618   4.063   2.302  0.1366 -0.0895  0.1989
  880CLF     CX  880   3.891   2.025   3.975  0.1262 -0.2253  0.2573
  881CLF     CX  881   0.571   3.238   3.386 -0.0240 -0.0230 -0.2126
  882CLF     CX  882   4.199   5.403   4.921 -0.0033  0.1516 -0.0473
  883CLF     CX  883   4.668   6.236   7.009  0.0372  0.1235  0.0610
  884CLF     CX  884   2.624   4.634   6.589 -0.0374  0.3971 -0.0151
  885CLF     CX  885   6.500   4.115   5.619 -0.0231 -0.2286 -0.2090
  886CLF     CX  886   3.780   3.279   6.856  0.1124  0.0769 -0.1209
  887CLF     CX  887   6.301   3.979   7.024  0.0453 -0.2278  0.2286
  888CLF     CX  888   4.410   5.881   5.306  0.1619  0.2967 -0.1299
  889CLF     CX  889   0.060   0.815   5.906  0.2719 -0.1848 -0.0678
  890CLF     CX  890   3.681   4.925   5.461 -0.0985 -0.0653  0.2642
  891CLF     CX  891   0.477   3.623   3.729  0.0508 -0.1865  0.1761
  892CLF     CX  892   2.004   0.138   3.720  0.2471 -0.3192 -0.0988
  893CLF     CX  893   7.087   3.506   0.437  0.1493  0.0794  0.1324
  894CLF     CX  894   1.676   2.497   3.920  0.1813 -0.0148  0.1035
  895CLF     CX  895   5.386   4.918   2.930 -0.0946 -0.3463  0.2952
  896CLF     CX  896   4.989   6.985   1.412  0.0266 -0.1849  0.0895
  897CLF     CX  897   3.687   2.782   4.134 -0.3355  0.0807 -0.2099
  898CLF     CX  898   5.360   0.057   0.331  0.1564  0.2607 -0.2448
  899CLF     CX  899   3.024   6.651   2.808  0.0401  0.2370  0.0157
  900CLF     CX  900   3.584   5.956   4.608  0.1794  0.0466 -0.0465
  901CLF     CX  901   1.419   1.685   5.815 -0.4955 -0.1340  0.0607
  902CLF     CX  902   2.034   2.560   1.459 -0.1417 -0.1910  0.3541
  903CLF     CX  903   4.542   3.814   6.159  0.0111 -0.3425 -0.3350
  904CLF     CX  904   2.952   6.198   2.452 -0.0613 -0.0807  0.1206
  905CLF     CX  905   6.406   3.745   1.128 -0.1691 -0.1986  0.1251
  906CLF     CX  906   2.133   6.236   6.804 -0.0622 -0.1470 -0.1939
  907CLF     CX  907   3.682   1.932   6.220  0.1612  0.0561  0.1299
  908CLF     CX  908   5.937   4.815   0.173  0.1216 -0.1502  0.0738
  909CLF     CX  909   2.737   3.344   3.500 -0.0649  0.1883 -0.1890
  910CLF     CX  910   5.396   4.796   4.051  0.0046 -0.0055 -0.0417
  911CLF     CX  911   5.710   6.869   6.606  0.0222 -0.2284 -0.1234
  912CLF     CX  912   3.425   2.559   1.713  0.1099 -0.0614 -0.0152
  913CLF     CX  913   2.773   6.038   1.939  0.0841  0.1890  0.2511
  914CLF     CX  914   0.084   6.952   3.202  0.1862  0.2666 -0.1751
  915CLF     CX  915   6.852   2.286   5.259  0.0298  0.0134  0.1504
  916CLF     CX  916   0.092   5.042   0.913  0.0788 -0.2132  0.0237
  917CLF     CX  917   3.047   0.715   0.408  0.3142 -0.2137 -0.0725
  918CLF     CX  918   2.148   3.972   6.872 -0.1575 -0.2641 -0.0359
  919CLF     CX  919   2.685   7.006   0.793 -0.2031 -0.1918 -0.1205
  920CLF     CX  920   2.036   3.866   3.529 -0.0823 -0.1874 -0.0358
  921CLF     CX  921   3.617   4.714   3.733  0.0678  0.0675  0.3774
  922CLF     CX  922   6.768   4.691   4.509 -0.1637  0.1085 -0.1621
  923CLF     CX  923   1.990   3.566   7.114  0.1756  0.1037  0.0552
  924CLF     CX  924   3.792   4.209   1.623 -0.2025 -0.1868  0.1725
  925CLF     CX  925   6.059   6.293   1.615 -0.1652  0.2281 -0.1236
  926CLF     CX  926   6.986   4.896   6.670  0.1473  0.1310 -0.3907
  927CLF     CX  927   0.600   5.457   0.070 -0.3519  0.1121 -0.0494
  928CLF     CX  928   4.629   5.336   1.996  0.1743  0.3391  0.2048
  929CLF     CX  929   4.023   5.724   1.656 -0.0262 -0.1249  0.0359
  930CLF     CX  930   4.865   4.941   4.217  0.1182  0.2513  0.3590
  931CLF     CX  931   6.782   1.671   4.566 -0.0746  0.0911 -0.2325
  932CLF     CX  932   1.123   3.980   3.395  0.1075 -0.1911 -0.0808
  933CLF     CX  933   4.859   1.862   4.137 -0.1931 -0.1103 -0.0060
  934CLF     CX  934   1.779   2.645   4.889  0.0934 -0.0833  0.2368
  935CLF     CX  935   6.062   0.873   1.836 -0.0826  0.0251 -0.0685
  936CLF     CX  936   4.164   1.153   1.041 -0.0901 -0.0531  0.2139
  937CLF     CX  937   6.002   1.760   3.907  0.0851  0.2274 -0.0262
  938CLF     CX  938   4.572   1.220   0.747 -0.1295  0.0741  0.0018
  939CLF     CX  939   4.814   0.710   3.687  0.2021 -0.3316 -0.0442
  940CLF     CX  940   5.337   4.025   5.422 -0.1762 -0.0600  0.4005
  941CLF     CX  941   5.478   3.470   5.231  0.2412 -0.1845  0.0082
  942CLF     CX  942   2.759   3.901   1.124 -0.0150  0.1183 -0.1658
  943CLF     CX  943   3.269   5.510   7.114  0.1721 -0.0537 -0.1911
  944CLF     CX  944   5.419   1.239   3.478  0.2413 -0.1158 -0.0806
  945CLF     CX  945   3.206   3.515   2.151 -0.0055 -0.0511  0.1001
  946CLF     CX  946   3.028   6.075   5.436  0.3075  0.0033 -0.4550
  947CLF     CX  947   6.415   6.086   0.941  0.1698 -0.1958  0.1274
  948CLF     CX  948   4.646   0.548   1.127 -0.1623 -0.0581 -0.2028
  949CLF     CX  949   1.775   2.208   1.653  0.0971  0.1769 -0.3564
  950CLF     CX  950   0.063   2.598   4.505 -0.3944 -0.0565  0.2254
  951CLF     CX  951   1.470   2.209   1.171 -0.3908 -0.0914  0.1969
  952CLF     CX  952   3.174   6.288   6.638 -0.3439  0.4711  0.1102
  953CLF     CX  953   1.329   2.272   3.259  0.0689 -0.1845  0.2423
  954CLF     CX  954   3.417   1.725   1.399 -0.2232  0.1129 -0.0205
  955CLF     CX  955   0.551   4.930   3.681  0.1172  0.1883 -0.0628
  956CLF     CX  956   6.100   0.367   6.099  0.0806  0.1290 -0.0235
  957CLF     CX  957   3.545   3.324   0.419 -0.2450 -0.0107 -0.2020
  958CLF     CX  958   2.293   3.604   1.357  0.1168 -0.0849  0.0288
  959CLF     CX  959   5.273   0.396   2.684  0.4335 -0.0518  0.1559
  960CLF     CX  960   6.206   6.103   5.414  0.0830  0.0621 -0.2030
  961CLF     CX  961   2.072   5.848   5.568  0.0627  0.1187 -0.4292
  962CLF     CX  962   3.862   3.872   6.954  0.2100  0.0347 -0.3187
  963CLF     CX  963   2.337   5.444   3.300  0.2753  0.1071 -0.0023
  964CLF     CX  964   1.905   1.393   3.946 -0.0109 -0.0951 -0.1587
  965CLF     CX  965   6.338   4.175   5.066  0.0505 -0.3231  0.1887
  966CLF     CX  966   6.109   5.500   2.459 -0.2678 -0.1276 -0.1234
  967CLF     CX  967   5.948   1.140   4.707 -0.1818 -0.1532 -0.2647
  968CLF     CX  968   7.104   0.807   3.232 -0.2860 -0.0833 -0.0469
  969CLF     CX  969   6.499   5.929   4.422  0.1940  0.1325  0.1544
  970CLF     CX  970   5.478   4.005   1.468  0.1367  0.3352  0.1675
  971CLF     CX  971   5.490   6.157   0.537 -0.0657  0.0148 -0.0134
  972CLF     CX  972   3.757   5.259   1.658 -0.0873  0.3465 -0.1155
  973CLF     CX  973   5.611   1.853   5.215 -0.2191  0.1839  0.1085
  974CLF     CX  974   1.225   0.929   1.671  0.0514 -0.0683 -0.1337
  975CLF     CX  975   3.084   1.957   4.739  0.0058  0.0231 -0.4506
  976CLF     CX  976   2.715   0.490   5.465  0.3698  0.2107  0.1858
  977CLF     CX  977   4.089   7.114   6.286 -0.0944 -0.0399 -0.1114
  978CLF     CX  978   3.538   2.537   2.172  0.1972 -0.0315  0.1699
  979CLF     CX  979   3.410   5.152   3.705  0.1183  0.2750  0.1671
  980CLF     CX  980   0.100   1.484   7.033 -0.3123 -0.0178  0.1664
  981CLF     CX  981   6.907   0.050   5.959 -0.0866 -0.2113  0.1762
  982CLF     CX  982   4.840   4.378   4.331  0.2274 -0.0455  0.0027
  983CLF     CX  983   4.547   5.872   6.655 -0.0170  0.1483 -0.0310
  984CLF     CX  984   5.929   4.716   6.296  0.0812  0.1480 -0.0004
  985CLF     CX  985   6.952   1.072   5.507 -0.3300  0.2774 -0.0131
  986CLF     CX  986   2.460   4.297   7.100  0.0905 -0.0337 -0.0737
  987CLF     CX  987   5.575   1.509   2.412 -0.1524 -0.2075  0.3948
  988CLF     CX  988   1.094   3.181   3.310 -0.1773 -0.0257 -0.0149
  989CLF     CX  989   3.857   0.392   6.544 -0.1909 -0.3454  0.1452
  990CLF     CX  990   3.650   6.738   1.023 -0.1215 -0.2233 -0.0405
  991CLF     CX  991   4.410   1.446   4.810 -0.0737  0.0416  0.0407
  992CLF     CX  992   4.794   3.391   1.190 -0.1604  0.1347  0.0105
  993CLF     CX  993   4.636   1.201   3.977  0.1115  0.0486  0.0393
  994CLF     CX  994   2.836   0.980   6.293  0.0372 -0.0603  0.0336
  995CLF     CX  995   6.828   4.235   2.815  0.0795 -0.0453  0.2015
  996CLF     CX  996   3.983   4.965   0.881  0.0471  0.1713 -0.2162
  997CLF     CX  997   1.935   5.118   0.921  0.0895  0.1469 -0.1822
  998CLF     CX  998   0.781   2.296   1.180  0.1900 -0.0115  0.0668
  999CLF     CX  999   0.179   7.058   4.308  0.2191 -0.1316 -0.0343
 1000CLF     CX 1000   1.864   4.273   1.832 -0.2656 -0.2576  0.1164
 1001CLF     CX 1001   6.675   0.396   3.956  0.0858  0.0814  0.0702
 1002CLF     CX 1002   0.496   5.776   1.414  0.2818  0.0370  0.1212
 1003CLF     CX 1003   2.123   3.476   4.364 -0.2018  0.4894  0.0898
 1004CLF     CX 1004   2.211   3.547   2.091 -0.1889 -0.0858  0.3973
 1005CLF     CX 1005   4.079   0.405   2.095  0.1504  0.0900  0.0591
 1006CLF     CX 1006   2.477   1.366   3.018  0.2914 -0.0889  0.4705
 1007CLF     CX 1007   4.587   2.123   6.622 -0.2240 -0.0975  0.2214
 1008CLF     CX 1008   6.094   6.114   3.180 -0.0084  0.0993 -0.1002
 1009CLF     CX 1009   6.267   1.930   0.090  0.1965  0.1612 -0.3115
 1010CLF     CX 1010   3.587   6.718   1.559  0.4468  0.1021  0.2629
 1011CLF     CX 1011   3.196   2.381   0.794  0.1534 -0.2528 -0.0902
 1012CLF     CX 1012   4.894   6.848   4.165  0.1336 -0.0803 -0.1073
 1013CLF     CX 1013   5.155   3.965   2.610 -0.0657  0.0024  0.0417
 1014CLF     CX 1014   1.144   2.088   2.284 -0.2605  0.1571 -0.2570
 1015CLF     CX 1015   2.807   6.524   2.149  0.1448  0.1742  0.1311
 1016CLF     CX 1016   5.628   0.294   4.425  0.0788  0.0346  0.3000
 1017CLF     CX 1017   3.538   7.033   4.573  0.0599 -0.0963  0.0596
 1018CLF     CX 1018   3.033   3.669   1.642  0.0759  0.1999 -0.1218
 1019CLF     CX 1019   4.459   0.127   0.265  0.0603  0.2335 -0.1546
 1020CLF     CX 1020   6.254   3.828   3.386  0.1975 -0.2146  0.1699
 1021CLF     CX 1021   1.675   5.082   6.509 -0.1073  0.1940 -0.2426
 1022CLF     CX 1022   3.809   0.627   2.941 -0.1501 -0.3139 -0.3736
 1023CLF     CX 1023   5.993   5.991   0.628  0.0669 -0.0651 -0.0121
 1024CLF     CX 1024   0.314   4.985   0.071  0.1062 -0.0719  0.3150
 1025CLF     CX 1025   1.482   5.408   2.506 -0.4919  0.1117  0.0465
 1026CLF     CX 1026   3.028   3.668   0.429 -0.0691 -0.0721 -0.0022
 1027CLF     CX 1027   1.622   3.625   3.326 -0.0975  0.0613  0.1362
 1028CLF     CX 1028   5.561   1.504   0.312 -0.1224 -0.2640  0.1040
 1029CLF     CX 1029   6.352   1.981   4.209 -0.0250  0.0074  0.1369
 1030CLF     CX 1030   4.061   1.743   4.641 -0.1351  0.1704  0.1873
 1031CLF     CX 1031   1.813   4.096   0.736  0.1385 -0.1398 -0.1089
 1032CLF     CX 1032   0.907   6.725   6.891  0.0234 -0.1680 -0.0057
 1033CLF     CX 1033   6.620   0.918   3.980 -0.1420  0.1020 -0.3380
 1034CLF     CX 1034   0.588   2.764   0.915 -0.0205 -0.0522  0.0395
 1035CLF     CX 1035   4.406   5.392   5.473  0.1721 -0.0935 -0.0229
 1036CLF     CX 1036   5.739   4.462   0.855 -0.0340 -0.0764  0.1011
 1037CLF     CX 1037   1.610   5.932   2.793  0.1425  0.1943  0.0422
 1038CLF     CX 1038   1.727   5.595   1.649  0.1770 -0.0568 -0.0512
 1039CLF     CX 1039   7.060   5.846   5.330  0.2329  0.1383 -0.1399
 1040CLF     CX 1040   0.903   3.238   4.225  0.2789 -0.4876 -0.2322
 1041CLF     CX 1041   5.819   0.847   6.104  0.0144 -0.0001  0.2048
 1042CLF     CX 1042   6.084   4.382   5.959  0.1384  0.2801 -0.3646
 1043CLF     CX 1043   2.789   1.990   5.742 -0.1772 -0.2727  0.4567
 1044CLF     CX 1044   4.854   6.690   1.058 -0.0140 -0.1856 -0.2551
 1045CLF     CX 1045   5.110   4.184   3.956 -0.0770  0.1870 -0.5219
 1046CLF     CX 1046   1.371   3.687   1.444 -0.1831 -0.0406 -0.0776
 1047CLF     CX 1047   1.945   2.540   5.687  0.1896  0.0500  0.2500
 1048CLF     CX 1048   3.111   0.535   7.063  0.0800  0.0008  0.1630
 1049CLF     CX 1049   0.285   5.863   7.096  0.0682 -0.0474 -0.1643
 1050CLF     CX 1050   5.655   0.475   4.873 -0.4110  0.2696 -0.1798
 1051CLF     CX 1051   5.275   4.614   3.397 -0.0241  0.1493  0.2189
 1052CLF     CX 1052   4.198   1.494   3.812  0.1820 -0.0426  0.1095
 1053CLF     CX 1053   0.902   6.232   1.472  0.3032 -0.0271 -0.2073
 1054CLF     CX 1054   2.436   1.894   6.219 -0.1092 -0.0771 -0.0893
 1055CLF     CX 1055   5.781   5.305   2.908  0.3442 -0.1022 -0.1365
 1056CLF     CX 1056   6.621   4.557   0.961 -0.0250 -0.0115 -0.1973
 1057CLF     CX 1057   6.510   5.947   0.347  0.1190 -0.0202 -0.0463
 1058CLF     CX 1058   6.012   2.769   2.621  0.1477 -0.2331  0.1326
 1059CLF     CX 1059   1.382   3.875   3.860  0.2167 -0.0599  0.1140
 1060CLF     CX 1060   1.902   5.798   3.766 -0.1138 -0.0287  0.0502
 1061CLF     CX 1061   2.144   0.105   4.701  0.2852  0.0943  0.3093
 1062CLF     CX 1062   0.983   3.225   5.130  0.0529  0.1759 -0.0908
 1063CLF     CX 1063   3.521   1.757   5.280 -0.3086  0.0232 -0.6913
 1064CLF     CX 1064   4.657   2.867   6.719  0.0478  0.0203  0.1160
 1065CLF     CX 1065   0.820   4.452   0.163 -0.0575  0.0902  0.0448
 1066CLF     CX 1066   6.537   6.102   3.489  0.0264 -0.0952  0.2680
 1067CLF     CX 1067   1.350   4.338   3.669 -0.0404  0.0554 -0.0173
 1068CLF     CX 1068   6.149   1.835   6.772  0.0610 -0.1918  0.0704
 1069CLF     CX 1069   5.417   2.286   5.685  0.2828 -0.1745  0.2529
 1070CLF     CX 1070   1.746   5.077   2.699  0.0764  0.0959 -0.0748
 1071CLF     CX 1071   2.451   2.660   4.631  0.0427  0.2174  0.0781
 1072CLF     CX 1072   1.379   6.762   3.524 -0.2382  0.1022 -0.0949
 1073CLF     CX 1073   3.815   5.422   0.857  0.2261 -0.2062 -0.1667
 1074CLF     CX 1074   4.730   4.254   0.264 -0.3569  0.0451 -0.4600
 1075CLF     CX 1075   3.690   1.544   3.622  0.0849 -0.3683 -0.3172
 1076CLF     CX 1076   2.690   5.203   2.334  0.3919 -0.1721 -0.0969
 1077CLF     CX 1077   5.273   0.121   6.487 -0.0536  0.0964 -0.0263
 1078CLF     CX 1078   1.167   1.368   1.929 -0.0853 -0.0810  0.2588
 1079CLF     CX 1079   6.605   4.708   1.436 -0.0223 -0.1050  0.0803
 1080CLF     CX 1080   5.483   5.400   1.753 -0.0352 -0.2206  0.0670
 1081CLF     CX 1081   1.147   3.618   5.564 -0.0621  0.0556  0.4292
 1082CLF     CX 1082   3.656   0.556   1.835 -0.1220 -0.0736  0.0959
 1083CLF     CX 1083   5.097   0.554   3.225  0.1239  0.0973 -0.0612
 1084CLF     CX 1084   0.645   4.225   2.507 -0.0140 -0.1467 -0.1737
 1085CLF     CX 1085   2.406   0.041   3.314 -0.1400  0.0287  0.2777
 1086CLF     CX 1086   1.314   0.393   0.047 -0.3590 -0.0743 -0.2286
 1087CLF     CX 1087   0.889   6.754   1.690  0.2142 -0.2223  0.2645
 1088CLF     CX 1088   5.583   0.178   5.998  0.1691 -0.0369  0.0581
 1089CLF     CX 1089   0.100   5.080   5.290 -0.0212  0.1695  0.0014
 1090CLF     CX 1090   5.688   1.055   6.577  0.0022  0.0115  0.0228
 1091CLF     CX 1091   0.008   6.760   6.004 -0.1032  0.3837  0.5006
 1092CLF     CX 1092   2.864   5.899   2.900  0.2355 -0.0023 -0.2220
 1093CLF     CX 1093   1.370   6.556   6.230  0.0208  0.0714  0.2401
 1094CLF     CX 1094   1.287   4.146   6.494  0.0072 -0.2527  0.2671
 1095CLF     CX 1095   1.613   1.648   4.387 -0.0068  0.0112 -0.1095
 1096CLF     CX 1096   5.361   5.299   0.742 -0.1450 -0.4375 -0.5040
 1097CLF     CX 1097   2.397   0.516   0.348 -0.0962  0.1741  0.0469
 1098CLF     CX 1098   4.463   6.906   4.417  0.1952 -0.1357 -0.0420
 1099CLF     CX 1099   2.189   3.018   2.459  0.0248 -0.0016 -0.0514
 1100CLF     CX 1100   2.423   6.444   0.013  0.1399  0.1964  0.1857
 1101CLF     CX 1101   5.992   1.114   5.189 -0.1216  0.3547  0.1085
 1102CLF     CX 1102   6.011   2.758   0.624 -0.0407 -0.1695 -0.3326
 1103CLF     CX 1103   2.432   1.085   1.184 -0.1449  0.1197 -0.1073
 1104CLF     CX 1104   3.178   3.209   5.454 -0.1836 -0.1557  0.2713
 1105CLF     CX 1105   2.340   2.968   1.909 -0.0783 -0.0971  0.2501
 1106CLF     CX 1106   2.847   4.612   7.065  0.0380  0.0983  0.2384
 1107CLF     CX 1107   2.254   1.214   0.551  0.2260 -0.0455 -0.0436
 1108CLF     CX 1108   3.624   5.109   0.061 -0.3276  0.0180 -0.0140
 1109CLF     CX 1109   1.788   0.900   0.968  0.2196 -0.0676 -0.1354
 1110CLF     CX 1110   0.866   5.408   3.382  0.1019  0.2599  0.1273
 1111CLF     CX 1111   3.161   5.112   0.291  0.3908 -0.0815 -0.0040
 1112CLF     CX 1112   6.019   1.402   6.496  0.0239 -0.0156 -0.0096
 1113CLF     CX 1113   3.169   1.063   1.300 -0.0643 -0.1856 -0.1771
 1114CLF     CX 1114   6.922   5.977   2.882  0.1664 -0.0445 -0.2846
 1115CLF     CX 1115   1.838   4.546   3.513  0.1002  0.1769 -0.1343
 1116CLF     CX 1116   3.237   2.656   7.100 -0.2747  0.1583 -0.2060
 1117CLF     CX 1117   2.563   2.105   3.668 -0.1995  0.1762  0.1419
 1118CLF     CX 1118   0.440   4.341   6.673  0.1850  0.0669 -0.2190
 1119CLF     CX 1119   1.340   4.888   2.473  0.2399 -0.1597  0.0512
 1120CLF     CX 1120   6.688   4.274   0.403 -0.0563  0.0678  0.0397
 1121CLF     CX 1121   6.845   2.410   1.115 -0.0299 -0.6116  0.4011
 1122CLF     CX 1122   6.432   6.817   2.989 -0.0335  0.1528 -0.0964
 1123CLF     CX 1123   4.430   5.644   4.525 -0.3311 -0.0658  0.3128
 1124CLF     CX 1124   2.975   4.091   5.883  0.0080 -0.1440 -0.1076
 1125CLF     CX 1125   5.824   0.525   1.004 -0.1279  0.3225  0.0511
 1126CLF     CX 1126   4.785   0.039   5.420 -0.2331 -0.0063  0.0109
 1127CLF     CX 1127   0.996   4.469   4.550  0.0199  0.1008 -0.2729
 1128CLF     CX 1128   0.289   2.410   1.437  0.1306 -0.0551 -0.0195
 1129CLF     CX 1129   6.143   5.307   6.190 -0.0479  0.2296 -0.0842
 1130CLF     CX 1130   1.406   0.300   1.351 -0.2637  0.2335 -0.0907
 1131CLF     CX 1131   1.006   2.644   3.098 -0.0186 -0.1249  0.1321
 1132CLF     CX 1132   3.230   7.076   5.306  0.1822  0.2593  0.1234
 1133CLF     CX 1133   5.683   3.364   2.014 -0.0210 -0.1829 -0.0099
 1134CLF     CX 1134   3.451   6.753   2.075 -0.0515 -0.0143  0.1748
 1135CLF     CX 1135   6.404   4.755   6.821  0.3303  0.0530 -0.0231
 1136CLF     CX 1136   2.102   5.764   2.944  0.2142 -0.0860 -0.0118
 1137CLF     CX 1137   3.216   3.699   2.971  0.0300 -0.0284 -0.0296
 1138CLF     CX 1138   2.169   2.207   3.353  0.0460 -0.2431 -0.1084
 1139CLF     CX 1139   1.590   6.622   3.968  0.0899  0.1857 -0.0723
 1140CLF     CX 1140   6.738   0.625   0.551  0.0602  0.0419  0.1613
 1141CLF     CX 1141   3.701   1.559   1.849  0.0567 -0.3020  0.0811
 1142CLF     CX 1142   1.425   3.150   1.984 -0.1856  0.0874  0.2330
 1143CLF     CX 1143   3.322   4.123   0.298 -0.0402  0.2220 -0.0529
 1144CLF     CX 1144   5.783   6.585   0.526 -0.2300  0.2373 -0.0066
 1145CLF     CX 1145   4.079   0.062   4.236 -0.0635  0.0193 -0.3611
 1146CLF     CX 1146   5.963   1.434   1.107 -0.2626  0.1863  0.1195
 1147CLF     CX 1147   1.770   3.461   5.401  0.0720  0.0206 -0.0245
 1148CLF     CX 1148   3.193   5.655   0.778  0.1163  0.0239 -0.4386
 1149CLF     CX 1149   3.792   2.947   1.709 -0.2555  0.0485  0.1353
 1150CLF     CX 1150   5.945   2.401   6.231  0.2866  0.1347  0.1002
 1151CLF     CX 1151   5.594   0.958   1.247 -0.2042  0.0332 -0.0445
 1152CLF     CX 1152   5.375   1.107   6.138  0.2730  0.0474 -0.0158
 1153CLF     CX 1153   6.617   6.700   6.313  0.2288 -0.3498  0.0649
 1154CLF     CX 1154   0.071   5.057   3.630  0.2383  0.1563  0.0370
 1155CLF     CX 1155   0.844   4.070   2.968  0.1521  0.1437 -0.2190
 1156CLF     CX 1156   4.616   1.443   5.818 -0.1667 -0.0850  0.1200
 1157CLF     CX 1157   1.271   6.502   0.056 -0.2987 -0.0302 -0.0236
 1158CLF     CX 1158   4.080   0.692   5.642  0.0336 -0.2009 -0.1070
 1159CLF     CX 1159   3.080   4.593   0.874  0.1730 -0.0924 -0.1408
 1160CLF     CX 1160   1.882   2.199   5.191  0.0634  0.0264 -0.1937
 1161CLF     CX 1161   1.241   4.311   7.038 -0.3886 -0.1102 -0.2212
 1162CLF     CX 1162   0.939   3.315   2.325  0.0484 -0.0475 -0.2611
 1163CLF     CX 1163   3.093   5.260   6.447  0.1052  0.1943  0.1799
 1164CLF     CX 1164   7.149   5.562   2.440 -0.0172 -0.2488  0.1244
 1165CLF     CX 1165   6.382   3.172   4.078  0.0543 -0.0420 -0.2376
 1166CLF     CX 1166   4.136   3.602   3.094  0.0228 -0.1072  0.0650
 1167CLF     CX 1167   5.010   3.546   6.288  0.2115  0.2890  0.1058
 1168CLF     CX 1168   4.653   1.489   1.494  0.2297 -0.0846 -0.1497
 1169CLF     CX 1169   5.507   0.962   5.010  0.0884 -0.1045 -0.1505
 1170CLF     CX 1170   3.851   4.295   3.465 -0.0741 -0.0256 -0.1763
 1171CLF     CX 1171   4.168   1.630   6.123 -0.0658  0.1169  0.1834
 1172CLF     CX 1172   0.558   1.100   4.620  0.1269 -0.3465  0.0953
 1173CLF     CX 1173   5.124   4.294   5.882  0.1794 -0.0715 -0.1952
 1174CLF     CX 1174   6.114   0.532   5.115 -0.0615 -0.0144  0.0407
 1175CLF     CX 1175   0.182   4.240   3.031  0.0291  0.1539 -0.0713
 1176CLF     CX 1176   4.346   6.196   2.909 -0.0356 -0.0730 -0.0951
 1177CLF     CX 1177   0.500   6.177   0.405  0.2391  0.3198 -0.0201
 1178CLF     CX 1178   0.272   1.308   5.281 -0.0270 -0.1134  0.0840
 1179CLF     CX 1179   5.706   5.842   3.784  0.0443 -0.2804 -0.1097
 1180CLF     CX 1180   6.377   5.557   0.667 -0.1705 -0.0425  0.2602
 1181CLF     CX 1181   2.896   2.783   4.981 -0.2586 -0.0297 -0.0876
 1182CLF     CX 1182   1.688   2.582   3.403  0.0533  0.3051  0.0804
 1183CLF     CX 1183   6.237   4.876   2.738 -0.1363  0.0585 -0.1287
 1184CLF     CX 1184   6.610   5.497   4.737 -0.1828 -0.3467  0.2145
 1185CLF     CX 1185   0.471   0.460   6.843  0.0366  0.1174  0.3644
 1186CLF     CX 1186   1.850   4.582   4.772 -0.1665  0.0542 -0.0380
 1187CLF     CX 1187   2.316   2.523   6.964 -0.3625 -0.0508  0.1810
 1188CLF     CX 1188   1.771   4.342   3.978 -0.0912  0.4142  0.0750
 1189CLF     CX 1189   4.210   2.094   1.321 -0.0811 -0.1876 -0.0366
 1190CLF     CX 1190   3.487   1.400   7.032 -0.1303  0.0246  0.2060
 1191CLF     CX 1191   4.161   2.851   3.868  0.0593  0.1637 -0.0118
 1192CLF     CX 1192   2.834   5.561   3.389  0.4236  0.3546 -0.1082
 1193CLF     CX 1193   3.709   1.175   0.851  0.2673  0.2670  0.1853
 1194CLF     CX 1194   3.197   0.023   0.032 -0.0043  0.0392  0.3256
 1195CLF     CX 1195   0.377   3.855   2.765 -0.0510 -0.0498 -0.0865
 1196CLF     CX 1196   5.577   0.149   1.794  0.1494 -0.1567 -0.1003
 1197CLF     CX 1197   6.977   2.363   1.698 -0.0336 -0.3624 -0.4946
 1198CLF     CX 1198   1.981   4.669   6.063  0.1682 -0.2914  0.2054
 1199CLF     CX 1199   6.520   5.401   2.175  0.0811  0.1756 -0.1548
 1200CLF     CX 1200   2.434   2.365   0.977  0.1116  0.1604 -0.2725
 1201CLF     CX 1201   0.061   2.794   2.081  0.0790  0.1103 -0.0323
 1202CLF     CX 1202   0.758   6.668   5.153  0.2074  0.1447 -0.0083
 1203CLF     CX 1203   0.493   2.257   0.120  0.1776 -0.1295 -0.1200
 1204CLF     CX 1204   4.602   5.103   3.065 -0.1792  0.0373  0.1442
 1205CLF     CX 1205   4.120   5.411   6.701 -0.2106  0.1821 -0.0312
 1206CLF     CX 1206   3.132   1.655   3.716  0.2812 -0.2628 -0.1190
 1207CLF     CX 1207   5.812   4.315   6.936  0.0371  0.1596  0.2484
 1208CLF     CX 1208   4.640   3.961   1.362 -0.1163 -0.1672 -0.0246
 1209CLF     CX 1209   3.859   2.451   5.134 -0.2055 -0.2265  0.0031
 1210CLF     CX 1210   2.329   6.402   1.601  0.0608 -0.0170  0.0357
 1211CLF     CX 1211   1.881   6.238   5.321 -0.0005 -0.3603 -0.2172
 1212CLF     CX 1212   4.863   1.539   4.642 -0.0420 -0.1318  0.2672
 1213CLF     CX 1213   4.558   7.069   4.996 -0.1556 -0.0683  0.1187
 1214CLF     CX 1214   5.467   2.453   6.509  0.0092 -0.0078 -0.4799
 1215CLF     CX 1215   3.297   3.391   6.719  0.0419 -0.3783 -0.2356
 1216CLF     CX 1216   3.898   1.686   3.180  0.1652 -0.2846  0.1274
 1217CLF     CX 1217   4.181   0.453   1.529  0.3969  0.0589  0.1172
 1218CLF     CX 1218   3.360   0.434   6.336  0.2100 -0.1225 -0.1183
 1219CLF     CX 1219   7.106   4.289   6.721 -0.2094  0.0310  0.0173
 1220CLF     CX 1220   1.528   2.887   2.429 -0.6328  0.2982  0.1496
 1221CLF     CX 1221   0.463   3.247   0.450 -0.0829  0.0177  0.1237
 1222CLF     CX 1222   3.111   2.198   2.292  0.0897 -0.0909 -0.1983
 1223CLF     CX 1223   4.989   6.072   5.986  0.1354 -0.2570 -0.2932
 1224CLF     CX 1224   4.631   5.046   6.888 -0.1937 -0.2032 -0.3499
 1225CLF     CX 1225   2.256   6.949   6.330  0.2600  0.0166  0.0024
 1226CLF     CX 1226   2.727   4.313   2.373  0.0034  0.0972  0.1983
 1227CLF     CX 1227   6.590   4.482   1.897  0.0236 -0.1230  0.0080
 1228CLF     CX 1228   0.260   2.877   6.106  0.0658  0.0159 -0.1013
 1229CLF     CX 1229   3.630   4.288   4.421  0.1183  0.2493 -0.0067
 1230CLF     CX 1230   7.102   6.308   1.833  0.1920 -0.1347 -0.1732
 1231CLF     CX 1231   4.463   3.471   2.699  0.3557 -0.0703 -0.0811
 1232CLF     CX 1232   2.948   4.829   3.659 -0.0946 -0.2518 -0.0422
 1233CLF     CX 1233   1.447   3.346   0.755 -0.0797 -0.3050  0.1603
 1234CLF     CX 1234   5.627   7.085   2.848  0.1315 -0.1387 -0.0579
 1235CLF     CX 1235   4.535   3.331   6.540 -0.1892 -0.0759  0.3252
 1236CLF     CX 1236   4.897   6.681   2.087 -0.1703 -0.2652 -0.0518
 1237CLF     CX 1237   3.194   7.005   3.113  0.0237  0.2100 -0.0877
 1238CLF     CX 1238   2.771   5.459   0.055  0.2751  0.1776  0.0259
 1239CLF     CX 1239   2.194   1.998   6.668  0.1450  0.3073  0.2867
 1240CLF     CX 1240   0.785   4.123   3.799 -0.0724 -0.1831 -0.0993
 1241CLF     CX 1241   6.770   1.649   7.150 -0.1338 -0.2112 -0.3368
 1242CLF     CX 1242   0.538   5.162   4.883  0.0482 -0.0074 -0.3394
 1243CLF     CX 1243   5.847   4.785   6.824  0.4248 -0.1262 -0.0249
 1244CLF     CX 1244   5.570   1.719   4.142 -0.1435  0.0048 -0.1275
 1245CLF     CX 1245   4.239   4.740   1.836  0.2236 -0.1381  0.4793
 1246CLF     CX 1246   5.790   5.394   5.774 -0.3451 -0.0754 -0.2226
 1247CLF     CX 1247   1.948   1.295   4.640  0.1519  0.0389  0.1151
 1248CLF     CX 1248   2.523   3.791   2.987 -0.1514  0.0752  0.2674
 1249CLF     CX 1249   2.867   6.431   3.333  0.0424 -0.0797  0.0706
 1250CLF     CX 1250   4.405   3.364   1.468 -0.0838 -0.0260 -0.0299
 1251CLF     CX 1251   4.655   0.219   1.559  0.0587 -0.2614  0.1869
 1252CLF     CX 1252   0.269   5.835   2.815 -0.3683  0.2148 -0.1573
 1253CLF     CX 1253   1.570   1.225   1.272  0.3371  0.1178  0.0589
 1254CLF     CX 1254   2.771   0.977   1.691  0.0676 -0.1745  0.0354
 1255CLF     CX 1255   6.800   1.235   2.408  0.0341 -0.0521 -0.1480
 1256CLF     CX 1256   0.602   2.270   5.634 -0.0125  0.1818  0.2634
 1257CLF     CX 1257   6.581   2.540   5.637  0.1717 -0.3697 -0.4358
 1258CLF     CX 1258   4.874   2.903   1.046 -0.1493 -0.1107  0.1671
 1259CLF     CX 1259   4.680   4.703   1.511 -0.0495 -0.0131  0.2577
 1260CLF     CX 1260   3.382   1.637   3.178 -0.0887 -0.2012  0.2780
 1261CLF     CX 1261   1.005   5.900   0.390  0.0782  0.2878 -0.0528
 1262CLF     CX 1262   5.921   2.968   2.143 -0.3758  0.2276 -0.0534
 1263CLF     CX 1263   1.463   4.606   6.436  0.1531 -0.2355  0.1569
 1264CLF     CX 1264   3.171   3.778   5.442  0.0598  0.1104 -0.2634
 1265CLF     CX 1265   0.900   0.092   6.832  0.0055 -0.6770  0.1399
 1266CLF     CX 1266   6.706   3.547   3.326  0.1622 -0.2522 -0.1262
 1267CLF     CX 1267   2.995   0.390   0.767  0.2260 -0.0005  0.1106
 1268CLF     CX 1268   4.314   0.171   1.074  0.1600  0.0913  0.0447
 1269CLF     CX 1269   3.823   3.028   5.310 -0.0173  0.0701 -0.2360
 1270CLF     CX 1270   4.079   3.143   4.399 -0.0916 -0.3234  0.0179
 1271CLF     CX 1271   1.834   6.763   6.101 -0.0055  0.1553  0.0405
 1272CLF     CX 1272   0.939   3.892   2.257  0.0442  0.1512 -0.1413
 1273CLF     CX 1273   0.303   6.747   5.478  0.1985  0.0035  0.1597
 1274CLF     CX 1274   1.948   3.007   0.883  0.2194  0.0387 -0.3601
 1275CLF     CX 1275   3.125   4.870   1.299 -0.1441  0.2273 -0.3092
 1276CLF     CX 1276   6.136   3.380   1.282  0.3610 -0.0803  0.2628
 1277CLF     CX 1277   0.689   6.310   4.786 -0.2498 -0.2946 -0.1069
 1278CLF     CX 1278   2.043   0.085   6.058  0.1033  0.2804  0.0612
 1279CLF     CX 1279   6.679   0.155   7.057  0.2517  0.1410 -0.0104
 1280CLF     CX 1280   5.247   0.324   0.766 -0.0249 -0.1235  0.0332
 1281CLF     CX 1281   2.245   2.112   1.682 -0.0233 -0.1798  0.0358
 1282CLF     CX 1282   7.031   4.310   4.860  0.0119 -0.4713 -0.0531
 1283CLF     CX 1283   1.692   5.872   1.059  0.2203 -0.4052 -0.0057
 1284CLF     CX 1284   1.553   5.544   6.347 -0.2770  0.0760  0.2211
 1285CLF     CX 1285   4.531   2.745   4.160  0.3356 -0.0414  0.1618
 1286CLF     CX 1286   3.335   1.793   5.724 -0.0038 -0.5225 -0.1695
 1287CLF     CX 1287   2.059   5.095   3.101  0.1008  0.1158 -0.1318
 1288CLF     CX 1288   7.116   2.940   5.297  0.0642 -0.1358 -0.1233
 1289CLF     CX 1289   5.968   0.796   5.571 -0.2863 -0.0066 -0.1444
 1290CLF     CX 1290   5.759   6.376   5.747  0.1348 -0.0616  0.0200
 1291CLF     CX 1291   3.485   2.892   6.709  0.0412 -0.2528 -0.0286
 1292CLF     CX 1292   2.656   1.735   5.126 -0.2563  0.1260 -0.0373
 1293CLF     CX 1293   3.394   3.121   2.639  0.2529  0.1035 -0.2241
 1294CLF     CX 1294   4.563   6.967   0.712 -0.0121 -0.1503  0.1071
 1295CLF     CX 1295   6.770   2.392   4.226  0.0458  0.0548 -0.2081
 1296CLF     CX 1296   0.694   4.388   5.649  0.1213  0.0105 -0.0655
 1297CLF     CX 1297   2.884   0.123   5.033 -0.0100  0.1493  0.1125
 1298CLF     CX 1298   2.326   1.978   4.892  0.3785  0.3548 -0.2311
 1299CLF     CX 1299   1.162   3.028   2.760  0.2018  0.1320 -0.0842
 1300CLF     CX 1300   4.753   5.962   2.341  0.0240 -0.2212  0.0372
 1301CLF     CX 1301   3.437   6.395   2.514  0.1220  0.2190  0.0273
 1302CLF     CX 1302   4.210   5.022   2.709  0.2964  0.0769 -0.1040
 1303CLF     CX 1303   5.192   5.416   0.189  0.2041 -0.1011  0.0329
 1304CLF     CX 1304   4.671   1.069   1.192  0.1923  0.1528 -0.0748
 1305CLF     CX 1305   3.401   2.407   4.023 -0.0469  0.0410 -0.0786
 1306CLF     CX 1306   3.957   3.019   0.454  0.2175  0.0664 -0.2243
 1307CLF     CX 1307   7.021   6.330   3.358 -0.2111 -0.2124 -0.2862
 1308CLF     CX 1308   1.546   1.718   1.737  0.0264 -0.0384 -0.1317
 1309CLF     CX 1309   3.755   1.998   4.945  0.0122 -0.2558  0.1465
 1310CLF     CX 1310   1.107   2.395   0.853  0.1121 -0.0225  0.0251
 1311CLF     CX 1311   2.042   6.321   3.826 -0.2534  0.1241 -0.2788
 1312CLF     CX 1312   3.357   3.072   4.984  0.0529 -0.4257  0.0545
 1313CLF     CX 1313   1.585   1.071   1.941 -0.0591 -0.1155 -0.0629
 1314CLF     CX 1314   0.896   2.121   5.216  0.2510 -0.2961 -0.0067
 1315CLF     CX 1315   6.287   4.210   2.130 -0.0997 -0.4427  0.0530
 1316CLF     CX 1316   4.303   3.979   6.532  0.0737 -0.0269 -0.2742
 1317CLF     CX 1317   1.785   0.661   0.533 -0.1536  0.0206  0.1245
 1318CLF     CX 1318   3.321   5.920   2.062  0.2530 -0.2084 -0.2121
 1319CLF     CX 1319   6.513   4.857   0.548  0.0363  0.0448 -0.3738
 1320CLF     CX 1320   0.843   6.530   0.692  0.2258  0.0882  0.2753
 1321CLF     CX 1321   0.311   2.683   5.537  0.0535 -0.0795  0.4376
 1322CLF     CX 1322   3.585   6.423   4.282 -0.0950  0.0912 -0.0823
 1323CLF     CX 1323   0.991   0.622   6.618  0.1441 -0.3895  0.1739
 1324CLF     CX 1324   0.730   3.301   0.902 -0.0374  0.1631  0.0080
 1325CLF     CX 1325   0.474   1.432   2.619 -0.1247 -0.2102  0.2147
 1326CLF     CX 1326   3.954   1.454   5.063  0.0944 -0.0980  0.1703
 1327CLF     CX 1327   4.115   5.964   0.960 -0.0789 -0.1191 -0.0276
 1328CLF     CX 1328   4.326   4.428   4.225  0.1488  0.2068  0.1509
 1329CLF     CX 1329   1.059   3.521   1.129 -0.1182 -0.3023 -0.0888
 1330CLF     CX 1330   5.513   5.269   3.424  0.0458  0.0603 -0.4036
 1331CLF     CX 1331   4.327   2.242   3.138  0.0801 -0.0376 -0.0180
 1332CLF     CX 1332   4.802   3.624   3.205  0.0429 -0.0590  0.3139
 1333CLF     CX 1333   6.212   0.499   4.052  0.1041 -0.3662 -0.0169
 1334CLF     CX 1334   2.842   3.449   7.152 -0.0067  0.1123  0.2659
 1335CLF     CX 1335   2.825   2.226   2.828 -0.3844  0.1080  0.0345
 1336CLF     CX 1336   5.133   6.235   2.066 -0.5944  0.0193 -0.3498
 1337CLF     CX 1337   4.222   4.538   0.677  0.0369  0.1943 -0.1887
 1338CLF     CX 1338   0.397   5.220   1.454  0.0608 -0.0911 -0.0502
 1339CLF     CX 1339   3.706   4.346   0.583 -0.2068 -0.2021  0.0141
 1340CLF     CX 1340   6.886   4.072   1.344 -0.3568 -0.4624  0.0216
 1341CLF     CX 1341   6.257   4.715   3.253  0.1626 -0.0232  0.1949
 1342CLF     CX 1342   6.016   1.409   0.011 -0.1667 -0.0446 -0.0102
 1343CLF     CX 1343   1.502   4.631   1.751  0.0247 -0.0947 -0.0091
 1344CLF     CX 1344   1.079   0.855   5.731 -0.0853 -0.1461 -0.2299
 1345CLF     CX 1345   2.081   5.575   0.852  0.1037  0.0752 -0.1516
 1346CLF     CX 1346   0.821   1.362   5.212 -0.1135  0.1384 -0.0309
 1347CLF     CX 1347   5.370   6.293   5.344 -0.0880 -0.0085 -0.1771
 1348CLF     CX 1348   5.446   3.284   3.166 -0.0510 -0.1335 -0.1189
 1349CLF     CX 1349   3.725   3.809   2.966  0.0157 -0.4669  0.3173
 1350CLF     CX 1350   2.697   6.363   6.714  0.3846 -0.1375  0.2683
 1351CLF     CX 1351   5.727   5.872   6.848  0.3049 -0.1736  0.0917
 1352CLF     CX 1352   3.184   3.062   1.944 -0.0027  0.0131  0.0787
 1353CLF     CX 1353   6.403   1.101   0.018  0.0665  0.0208  0.0367
 1354CLF     CX 1354   5.385   5.460   1.223  0.1176 -0.3544  0.2774
 1355CLF     CX 1355   5.959   4.485   2.846 -0.4210 -0.1499 -0.0511
 1356CLF     CX 1356   2.926   3.373   3.985  0.1310  0.0826  0.1949
 1357CLF     CX 1357   4.972   4.852   0.131  0.2130 -0.0362  0.1018
 1358CLF     CX 1358   5.442   3.805   1.874  0.1570  0.0113 -0.1228
 1359CLF     CX 1359   6.194   0.012   3.868 -0.1476 -0.2129 -0.1724
 1360CLF     CX 1360   5.282   2.880   6.605 -0.0696 -0.0571  0.3066
 1361CLF     CX 1361   0.520   0.931   5.989 -0.2842  0.0747  0.0771
 1362CLF     CX 1362   5.139   3.607   4.123 -0.0574  0.0061  0.2495
 1363CLF     CX 1363   6.379   2.634   0.266  0.0925  0.1824  0.0959
 1364CLF     CX 1364   1.144   0.344   4.144  0.2752 -0.0649  0.0355
 1365CLF     CX 1365   2.785   3.499   2.677 -0.0073 -0.1010  0.2690
 1366CLF     CX 1366   2.704   0.805   6.890  0.0360  0.2884 -0.1162
 1367CLF     CX 1367   1.490   0.687   5.461 -0.4670  0.4221  0.1974
 1368CLF     CX 1368   5.163   1.146   0.992  0.0004 -0.0909  0.2157
 1369CLF     CX 1369   0.615   4.722   4.540  0.0138  0.1674 -0.0240
 1370CLF     CX 1370   6.121   6.776   5.509  0.1229  0.1477  0.0461
 1371CLF     CX 1371   3.946   0.813   5.129  0.0248 -0.1683 -0.0183
 1372CLF     CX 1372   6.405   6.925   4.406  0.0745 -0.0371 -0.1437
 1373CLF     CX 1373   4.694   4.455   3.884 -0.1761  0.2330 -0.2514
 1374CLF     CX 1374   2.904   2.433   5.509  0.2149  0.3655 -0.0248
 1375CLF     CX 1375   0.888   6.537   2.775 -0.0053 -0.1010  0.0335
 1376CLF     CX 1376   0.841   4.299   0.856 -0.1664  0.0569 -0.3378
 1377CLF     CX 1377   1.505   2.444   5.848  0.2815  0.0678 -0.0009
 1378CLF     CX 1378   5.126   5.888   2.671  0.0669 -0.2596 -0.1215
 1379CLF     CX 1379   2.392   1.615   2.359  0.1408  0.5514 -0.1633
 1380CLF     CX 1380   5.048   3.339   6.710 -0.1459  0.5467 -0.4087
 1381CLF     CX 1381   6.866   3.906   0.745 -0.1870  0.2707  0.2186
 1382CLF     CX 1382   5.112   0.911   1.991 -0.0429 -0.0680  0.0035
 1383CLF     CX 1383   1.543   1.744   1.209  0.2591 -0.0000  0.1891
 1384CLF     CX 1384   5.199   0.365   4.666 -0.0566 -0.2159  0.0989
 1385CLF     CX 1385   6.430   3.298   4.651 -0.0640  0.0853 -0.0610
 1386CLF     CX 1386   2.871   1.202   3.825  0.3533 -0.1083 -0.0549
 1387CLF     CX 1387   5.200   2.020   1.000 -0.0329  0.0875 -0.0895
 1388CLF     CX 1388   6.054   1.992   4.955 -0.0276 -0.2705 -0.0763
 1389CLF     CX 1389   1.034   2.601   2.524 -0.2780 -0.1399  0.1639
 1390CLF     CX 1390   6.841   0.536   2.901 -0.3122  0.0130  0.1310
 1391CLF     CX 1391   3.629   6.634   6.332 -0.2664 -0.1608  0.0155
 1392CLF     CX 1392   6.719   4.418   5.921 -0.2950 -0.1443  0.3627
 1393CLF     CX 1393   1.450   1.464   6.509 -0.0789 -0.1309  0.1573
 1394CLF     CX 1394   1.997   6.252   2.906  0.1817 -0.0387 -0.4635
 1395CLF     CX 1395   6.242   6.384   6.329  0.1310 -0.1866 -0.3444
 1396CLF     CX 1396   0.175   3.938   4.572 -0.0772 -0.0880 -0.0691
 1397CLF     CX 1397   4.658   3.840   2.341 -0.1780 -0.1957  0.0565
 1398CLF     CX 1398   6.009   2.311   3.551 -0.0184 -0.1553 -0.2169
 1399CLF     CX 1399   0.769   7.002   3.503 -0.0884 -0.1782 -0.0630
 1400CLF     CX 1400   2.301   6.765   1.013  0.0182 -0.0524 -0.3841
 1401CLF     CX 1401   0.520   0.003   5.290 -0.0805 -0.0646 -0.1025
 1402CLF     CX 1402   5.115   1.272   5.650 -0.1689 -0.1485 -0.3993
 1403CLF     CX 1403   4.151   2.275   1.807 -0.0193  0.1919 -0.2278
 1404CLF     CX 1404   5.146   2.659   7.129  0.0774 -0.0189 -0.1289
 1405CLF     CX 1405   5.317   4.635   0.934 -0.0294  0.1865 -0.3202
 1406CLF     CX 1406   3.603   0.726   7.040 -0.0994 -0.1911  0.0603
 1407CLF     CX 1407   4.423   2.283   0.537 -0.1809  0.0550  0.1019
 1408CLF     CX 1408   2.132   4.215   5.829  0.1048  0.2772 -0.3328
 1409CLF     CX 1409   4.761   3.908   4.483  0.1172 -0.0065 -0.3390
 1410CLF     CX 1410   4.853   4.677   6.361 -0.0491  0.0771  0.1574
 1411CLF     CX 1411   1.293   5.733   4.699 -0.1926  0.0095  0.0944
 1412CLF     CX 1412   0.919   1.566   2.804 -0.1114  0.1780  0.0623
 1413CLF     CX 1413   4.196   6.488   6.234  0.1047 -0.0221 -0.1309
 1414CLF     CX 1414   2.249   6.716   5.430  0.0022 -0.1235 -0.0065
 1415CLF     CX 1415   4.718   0.971   5.673 -0.4622 -0.4565  0.0028
 1416CLF     CX 1416   6.264   6.598   4.007  0.1109  0.1104 -0.1529
 1417CLF     CX 1417   2.896   4.536   3.073 -0.2296  0.0588 -0.2936
 1418CLF     CX 1418   3.819   6.161   1.711  0.3774  0.0449  0.1838
 1419CLF     CX 1419   2.722   2.638   4.028  0.3612 -0.1383 -0.1386
 1420CLF     CX 1420   3.708   6.932   3.592 -0.1039  0.2862 -0.1980
 1421CLF     CX 1421   6.975   0.022   3.780 -0.3927 -0.0414 -0.0728
 1422CLF     CX 1422   4.259   0.684   6.350  0.2824  0.3801  0.1466
 1423CLF     CX 1423   4.700   5.787   5.687 -0.0170 -0.0414  0.1542
 1424CLF     CX 1424   6.405   1.428   6.806 -0.3063 -0.0636 -0.3921
 1425CLF     CX 1425   5.060   3.651   5.157 -0.1175  0.1196 -0.4341
 1426CLF     CX 1426   1.145   6.049   0.998 -0.0591  0.0961  0.0113
 1427CLF     CX 1427   4.650   3.450   5.832  0.0541 -0.0866 -0.0046
 1428CLF     CX 1428   2.697   4.380   3.490 -0.0383 -0.0977  0.2580
 1429CLF     CX 1429   0.479   4.752   5.237  0.2111  0.2016  0.0254
 1430CLF     CX 1430   3.684   2.099   1.779  0.0256  0.0152 -0.0787
 1431CLF     CX 1431   0.369   6.536   6.321 -0.3315 -0.4383  0.0394
 1432CLF     CX 1432   6.759   4.165   2.300  0.0078 -0.2228 -0.0578
 1433CLF     CX 1433   4.930   0.540   2.383  0.2724 -0.1763 -0.1279
 1434CLF     CX 1434   2.980   1.883   6.251  0.0027  0.2004  0.0521
 1435CLF     CX 1435   4.664   6.533   3.136 -0.3175 -0.0223 -0.0704
 1436CLF     CX 1436   0.366   5.265   3.318  0.1625  0.1645  0.2303
 1437CLF     CX 1437   6.011   0.941   0.788 -0.2374  0.1245 -0.2169
 1438CLF     CX 1438   5.173   4.054   1.049 -0.0792  0.0139  0.1126
 1439CLF     CX 1439   5.627   0.721   2.695 -0.0552  0.2654  0.0283
 1440CLF     CX 1440   2.181   6.825   2.931 -0.1816 -0.1093  0.1690
 1441CLF     CX 1441   4.031   4.082   4.048 -0.0214  0.0123  0.3369
 1442CLF     CX 1442   1.620   1.535   4.937 -0.2917  0.1885 -0.3003
 1443CLF     CX 1443   4.031   4.857   6.353 -0.3141 -0.3152  0.3013
 1444CLF     CX 1444   4.899   3.664   0.042 -0.0572 -0.0507 -0.0813
 1445CLF     CX 1445   0.230   0.399   6.078  0.1922  0.1327 -0.1149
 1446CLF     CX 1446   5.434   3.025   2.473  0.2557  0.1154 -0.3003
 1447CLF     CX 1447   3.027   7.091   2.443 -0.0860 -0.4696 -0.0242
 1448CLF     CX 1448   4.146   5.360   6.140  0.4160  0.2225 -0.1142
 1449CLF     CX 1449   4.202   1.653   0.066 -0.1220  0.0166  0.2893
 1450CLF     CX 1450   6.349   2.112   2.242  0.0351  0.0075  0.2956
 1451CLF     CX 1451   6.476   2.688   4.672  0.1033 -0.0095  0.0809
 1452CLF     CX 1452   2.016   5.728   6.501  0.0289  0.2288  0.1069
 1453CLF     CX 1453   1.539   0.986   3.670  0.0315  0.3226  0.0351
 1454CLF     CX 1454   7.074   5.599   5.914 -0.1766  0.0009  0.0421
 1455CLF     CX 1455   5.996   6.090   0.147 -0.0398 -0.2320 -0.0735
 1456CLF     CX 1456   4.098   4.428   5.955 -0.0326  0.0580  0.1104
 1457CLF     CX 1457   6.788   0.444   1.848 -0.1602  0.1070 -0.0085
 1458CLF     CX 1458   5.788   1.290   3.799 -0.0626 -0.0601  0.1164
 1459CLF     CX 1459   6.992   6.698   0.072  0.0904  0.2840  0.0618
 1460CLF     CX 1460   3.205   4.942   4.153 -0.0453 -0.2882 -0.1053
 1461CLF     CX 1461   1.219   5.267   6.666 -0.1061  0.2428  0.1767
 1462CLF     CX 1462   6.141   5.084   1.681  0.0032 -0.4942 -0.2734
 1463CLF     CX 1463   3.423   5.375   5.486  0.1565 -0.1290  0.1710
 1464CLF     CX 1464   0.734   1.006   6.837 -0.0367 -0.1134 -0.1776
 1465CLF     CX 1465   5.626   3.453   1.391 -0.0429  0.1000 -0.1131
 1466CLF     CX 1466   3.570   2.090   3.608 -0.0925 -0.1535 -0.0422
 1467CLF     CX 1467   0.154   1.844   0.235  0.0030 -0.0315  0.0927
 1468CLF     CX 1468   5.550   4.456   5.976  0.0592 -0.2772 -0.3716
 1469CLF     CX 1469   5.533   2.190   4.721 -0.0681  0.0172  0.1940
 1470CLF     CX 1470   4.525   2.409   4.501 -0.0147  0.1480 -0.2282
 1471CLF     CX 1471   6.967   5.190   2.771  0.2519  0.0981  0.0778
 1472CLF     CX 1472   6.411   2.225   6.008 -0.1050 -0.0844  0.2592
 1473CLF     CX 1473   1.670   5.884   3.292 -0.1756  0.1292 -0.0088
 1474CLF     CX 1474   0.823   6.954   4.569  0.1031 -0.0540 -0.2797
 1475CLF     CX 1475   2.950   4.059   3.152 -0.1760 -0.3838  0.0405
 1476CLF     CX 1476   2.219   2.552   5.071 -0.2209 -0.4172 -0.1427
 1477CLF     CX 1477   1.670   2.084   2.102 -0.1421  0.0166 -0.1145
 1478CLF     CX 1478   2.996   1.206   2.681 -0.1920  0.1458  0.0760
 1479CLF     CX 1479   3.429   6.480   4.883  0.0522 -0.3218 -0.1839
 1480CLF     CX 1480   6.700   2.558   6.544  0.1007  0.0083  0.3270
 1481CLF     CX 1481   3.115   4.711   6.239  0.0487 -0.0451  0.1384
 1482CLF     CX 1482   0.923   4.701   5.917  0.0680 -0.1786  0.0800
 1483CLF     CX 1483   2.245   0.982   5.041  0.0935 -0.0493 -0.2020
 1484CLF     CX 1484   5.702   2.360   0.850  0.1962 -0.0288 -0.0731
 1485CLF     CX 1485   2.934   6.397   5.080 -0.1416  0.1103 -0.0882
 1486CLF     CX 1486   1.352   1.218   5.562 -0.0424 -0.5146 -0.2633
 1487CLF     CX 1487   0.471   5.470   2.423  0.0330  0.1002  0.0971
 1488CLF     CX 1488   0.969   7.015   2.323 -0.0567  0.3461  0.0042
 1489CLF     CX 1489   4.219   6.277   6.763 -0.4335 -0.1080  0.0036
 1490CLF     CX 1490   0.851   0.597   7.128 -0.2616  0.0490 -0.1551
 1491CLF     CX 1491   3.938   5.491   0.054  0.2483  0.4067  0.1754
 1492CLF     CX 1492   5.605   1.549   6.016 -0.0677 -0.1213 -0.0672
 1493CLF     CX 1493   5.673   2.176   3.995 -0.0910 -0.0524 -0.0158
 1494CLF     CX 1494   0.396   0.802   0.704  0.0782  0.0099 -0.0974
 1495CLF     CX 1495   4.034   4.740   2.278 -0.0118 -0.0806 -0.2014
 1496CLF     CX 1496   3.459   6.426   3.748 -0.4005 -0.2088  0.2445
 1497CLF     CX 1497   1.170   2.001   4.357 -0.0905 -0.2448  0.2186
 1498CLF     CX 1498   4.279   6.863   2.778  0.1276  0.2697 -0.1099
 1499CLF     CX 1499   6.390   6.648   3.509 -0.0925  0.1116 -0.1067
 1500CLF     CX 1500   2.410   4.937   5.736  0.1146 -0.0798  0.1498
 1501CLF     CX 1501   5.888   6.620   7.115 -0.0889 -0.2204 -0.1057
 1502CLF     CX 1502   4.218   5.794   2.443  0.0295  0.0278  0.0111
 1503CLF     CX 1503   5.849   4.166   1.881 -0.1493 -0.0350 -0.0257
 1504CLF     CX 1504   0.075   5.476   0.207 -0.1385  0.1533 -0.3561
 1505CLF     CX 1505   5.761   5.346   4.921 -0.1441  0.1253 -0.0113
 1506CLF     CX 1506   5.735   4.427   1.483 -0.1323  0.0752  0.0364
 1507CLF     CX 1507   1.237   4.963   1.994 -0.2023  0.0412 -0.2308
 1508CLF     CX 1508   0.722   6.142   6.252 -0.0171  0.0306  0.1794
 1509CLF     CX 1509   5.942   3.624   0.149  0.2511 -0.3564  0.1134
 1510CLF     CX 1510   5.025   0.458   5.490 -0.2199 -0.1651 -0.0864
 1511CLF     CX 1511   1.869   0.155   3.179 -0.1359  0.0834  0.1228
 1512CLF     CX 1512   4.921   6.475   1.533  0.0062  0.1700  0.1719
 1513CLF     CX 1513   4.555   0.500   4.931  0.0710 -0.0036  0.4030
 1514CLF     CX 1514   4.775   4.222   5.459 -0.1519  0.1854  0.0483
 1515CLF     CX 1515   6.903   6.646   2.998 -0.1241 -0.3407  0.0226
 1516CLF     CX 1516   2.068   0.004   1.178  0.1093 -0.3338  0.0986
 1517CLF     CX 1517   1.973   5.867   7.095 -0.0371  0.1951  0.1293
 1518CLF     CX 1518   4.903   1.606   0.988 -0.0827  0.0460  0.1955
 1519CLF     CX 1519   7.030   4.224   4.350 -0.0010 -0.2203  0.0118
 1520CLF     CX 1520   6.481   4.235   3.227  0.4732  0.1186  0.2642
 1521CLF     CX 1521   6.495   6.334   3.006 -0.2886 -0.1280  0.0685
 1522CLF     CX 1522   1.864   0.153   1.662  0.0194  0.1831 -0.1828
 1523CLF     CX 1523   5.101   3.470   2.773 -0.1607 -0.1573 -0.2065
 1524CLF     CX 1524   1.952   6.395   0.695  0.2321  0.0084 -0.0271
 1525CLF     CX 1525   1.066   1.229   3.654  0.2120 -0.1158  0.1083
 1526CLF     CX 1526   5.360   0.592   6.225  0.2793 -0.2322 -0.0521
 1527CLF     CX 1527   4.622   7.131   2.933 -0.1781  0.1394  0.1858
 1528CLF     CX 1528   2.932   1.272   0.949  0.3603 -0.2353  0.1750
 1529CLF     CX 1529   5.592   2.098   2.798 -0.0581 -0.1232 -0.0773
 1530CLF     CX 1530   0.142   3.305   2.058 -0.1880 -0.2956  0.0200
 1531CLF     CX 1531   1.109   5.958   2.029 -0.0282 -0.0554  0.3468
 1532CLF     CX 1532   1.833   2.037   5.820 -0.3154  0.3517 -0.1122
 1533CLF     CX 1533   4.948   5.459   4.273 -0.1053  0.0029  0.2752
 1534CLF     CX 1534   3.721   5.862   3.196  0.1477  0.1326 -0.1121
 1535CLF     CX 1535   3.817   2.506   1.288  0.0259 -0.1806 -0.4451
 1536CLF     CX 1536   3.511   0.212   2.200  0.0863  0.0883  0.1919
 1537CLF     CX 1537   2.711   7.095   5.469  0.0415  0.1250  0.0075
 1538CLF     CX 1538   1.708   1.185   6.972  0.3011  0.1320 -0.0142
 1539CLF     CX 1539   3.166   5.087   2.704 -0.2039  0.0705 -0.1983
 1540CLF     CX 1540   5.270   2.437   1.234 -0.0448  0.0061  0.0313
 1541CLF     CX 1541   4.681   2.642   0.292  0.1992 -0.1226 -0.0525
 1542CLF     CX 1542   2.478   2.610   2.899 -0.0303 -0.1672  0.2432
 1543CLF     CX 1543   1.485   0.442   1.881  0.1750  0.2358 -0.0370
 1544CLF     CX 1544   5.249   1.538   0.677  0.2404 -0.0740 -0.0630
 1545CLF     CX 1545   3.386   3.293   4.309 -0.2334  0.1348 -0.2926
 1546CLF     CX 1546   5.118   1.022   6.630  0.2396  0.2245 -0.2361
 1547CLF     CX 1547   3.499   2.589   3.535  0.0407 -0.0067  0.0718
 1548CLF     CX 1548   4.332   2.733   0.748  0.1572 -0.0469  0.0552
 1549CLF     CX 1549   6.570   6.383   5.174 -0.0177  0.0946  0.1460
 1550CLF     CX 1550   0.438   4.085   2.101 -0.5524 -0.2103  0.0657
 1551CLF     CX 1551   5.406   3.859   4.841 -0.0648 -0.0022  0.1494
 1552CLF     CX 1552   1.184   0.877   1.194  0.1113 -0.1481  0.2490
 1553CLF     CX 1553   5.152   2.228   1.733 -0.0316 -0.1001 -0.2682
 1554CLF     CX 1554   5.395   0.482   3.569 -0.1015  0.0585 -0.0827
 1555CLF     CX 1555   5.162   2.054   3.741  0.0839 -0.0097 -0.0245
 1556CLF     CX 1556   2.368   5.648   1.956  0.0278 -0.1339  0.2629
 1557CLF     CX 1557   2.479   6.140   3.119  0.0697 -0.1135 -0.0052
 1558CLF     CX 1558   3.044   2.433   4.406  0.1298  0.1814 -0.2503
 1559CLF     CX 1559   5.879   2.267   1.289 -0.2482 -0.0050  0.0200
 1560CLF     CX 1560   0.260   4.752   1.268  0.2494  0.0741 -0.2933
 1561CLF     CX 1561   6.363   0.034   5.157 -0.0330 -0.0801 -0.2524
 1562CLF     CX 1562   2.600   1.210   0.084 -0.3164  0.1198  0.0855
 1563CLF     CX 1563   6.661   1.455   1.769  0.0365  0.1661 -0.0765
 1564CLF     CX 1564   6.089   6.223   3.709  0.2138  0.0341  0.0183
 1565CLF     CX 1565   4.242   2.235   6.002 -0.0202 -0.1361  0.2085
 1566CLF     CX 1566   3.037   7.020   5.857 -0.0607 -0.0610  0.2787
 1567CLF     CX 1567   3.480   4.219   6.975  0.1907  0.2481  0.0254
 1568CLF     CX 1568   4.819   1.441   2.946 -0.0557  0.0181  0.1360
 1569CLF     CX 1569   5.142   1.514   3.871  0.2387  0.4344 -0.1281
 1570CLF     CX 1570   0.174   4.776   3.224  0.2624  0.2123  0.0587
 1571CLF     CX 1571   1.317   7.044   0.382 -0.0366  0.1805 -0.0019
 1572CLF     CX 1572   0.492   3.203   5.807 -0.2137 -0.0827 -0.3182
 1573CLF     CX 1573   1.100   5.807   3.458 -0.1092 -0.1329  0.0520
 1574CLF     CX 1574   4.702   2.793   3.674 -0.3292  0.2345 -0.0672
 1575CLF     CX 1575   2.640   3.808   4.107  0.0302  0.2407 -0.1473
 1576CLF     CX 1576   0.703   5.093   6.156  0.3660  0.1525  0.2517
 1577CLF     CX 1577   1.210   4.296   4.142  0.1755 -0.0425 -0.0065
 1578CLF     CX 1578   4.596   1.784   3.663 -0.1497  0.3187  0.1956
 1579CLF     CX 1579   2.894   1.544   5.486  0.1034 -0.1181 -0.1104
 1580CLF     CX 1580   4.079   0.988   0.080 -0.0902 -0.2757  0.0382
 1581CLF     CX 1581   3.471   0.270   1.102  0.2004 -0.0752  0.0176
 1582CLF     CX 1582   2.644   2.209   4.379 -0.0270 -0.2358  0.0963
 1583CLF     CX 1583   7.115   5.067   1.751  0.0912 -0.3616  0.0179
 1584CLF     CX 1584   1.295   6.395   3.066 -0.0218  0.1753 -0.0788
 1585CLF     CX 1585   4.542   2.402   2.244 -0.2443 -0.1392  0.0421
 1586CLF     CX 1586   2.887   6.852   6.732  0.0628  0.2786  0.3575
 1587CLF     CX 1587   4.479   0.949   5.035 -0.5057 -0.0062  0.2986
 1588CLF     CX 1588   3.374   5.804   6.260 -0.1025 -0.2294 -0.1825
 1589CLF     CX 1589   5.852   3.865   6.818 -0.1272 -0.0970 -0.1714
 1590CLF     CX 1590   2.444   0.198   1.644  0.2889 -0.3291  0.1383
 1591CLF     CX 1591   1.243   2.855   0.705 -0.0853 -0.3151 -0.1449
 1592CLF     CX 1592   3.751   0.559   2.470  0.1596 -0.0885 -0.0666
 1593CLF     CX 1593   4.543   2.953   4.628  0.1033  0.2613  0.0778
 1594CLF     CX 1594   3.277   4.722   4.599  0.0528 -0.0690 -0.2129
 1595CLF     CX 1595   2.435   5.428   4.193 -0.0943 -0.0451  0.0061
 1596CLF     CX 1596   2.902   4.102   1.914  0.0425 -0.0885 -0.3029
 1597CLF     CX 1597   0.012   4.884   4.119 -0.1083 -0.0902  0.0658
 1598CLF     CX 1598   6.441   3.485   0.033 -0.4225 -0.0016 -0.0961
 1599CLF     CX 1599   3.607   3.543   6.295 -0.1221 -0.1861 -0.0144
 1600CLF     CX 1600   1.720   3.116   3.335 -0.0949 -0.2383  0.3605
 1601CLF     CX 1601   4.348   1.642   1.027  0.1337 -0.0922 -0.3057
 1602CLF     CX 1602   0.894   2.993   3.756 -0.2324  0.1899  0.0250
 1603CLF     CX 1603   1.087   1.621   0.485 -0.0496 -0.0702 -0.3323
 1604CLF     CX 1604   3.327   0.872   0.808  0.0031  0.0632  0.0394
 1605CLF     CX 1605   1.395   3.365   5.916 -0.2737 -0.3073 -0.0410
 1606CLF     CX 1606   6.444   2.728   6.090  0.0776 -0.0076 -0.0839
 1607CLF     CX 1607   5.085   5.742   5.358  0.0678 -0.1577  0.1909
 1608CLF     CX 1608   3.119   7.133   4.354  0.1550  0.1002  0.2451
 1609CLF     CX 1609   1.425   4.646   5.901  0.0942  0.0730  0.2482
 1610CLF     CX 1610   2.264   0.097   5.397 -0.2056  0.0595  0.0341
 1611CLF     CX 1611   3.529   4.805   6.712 -0.0737  0.1119  0.2493
 1612CLF     CX 1612   0.744   3.914   5.274  0.2648 -0.2407 -0.0393
 1613CLF     CX 1613   5.923   6.750   1.775  0.2144 -0.0910 -0.0175
 1614CLF     CX 1614   2.595   1.155   5.708  0.0763 -0.3081  0.2120
 1615CLF     CX 1615   2.303   1.365   5.320 -0.2599 -0.0892 -0.3070
 1616CLF     CX 1616   0.651   0.335   2.353 -0.0793  0.0965 -0.2079
 1617CLF     CX 1617   4.038   1.356   2.824 -0.1400  0.2110 -0.1407
 1618CLF     CX 1618   4.441   6.711   7.035  0.0828 -0.0061 -0.3182
 1619CLF     CX 1619   6.457   6.730   2.470 -0.0051  0.0639  0.3205
 1620CLF     CX 1620   4.803   1.213   3.459  0.0524  0.2680  0.2725
 1621CLF     CX 1621   2.411   5.502   5.786  0.2319 -0.0434 -0.1626
 1622CLF     CX 1622   5.112   6.803   6.837  0.2336 -0.1236  0.0018
 1623CLF     CX 1623   4.431   0.567   3.285  0.2804 -0.2422  0.0916
 1624CLF     CX 1624   0.899   5.356   1.273 -0.1467  0.3667 -0.1393
 1625CLF     CX 1625   1.566   0.662   3.246  0.0359  0.2755  0.1261
 1626CLF     CX 1626   4.341   3.664   1.001 -0.1832  0.2222 -0.1083
 1627CLF     CX 1627   6.264   3.740   4.140 -0.0161 -0.1052 -0.1093
 1628CLF     CX 1628   1.115   7.113   3.823 -0.0244 -0.1335 -0.0873
 1629CLF     CX 1629   1.364   3.522   5.058  0.0627 -0.1425  0.0454
 1630CLF     CX 1630   6.077   6.366   4.445  0.0745 -0.0093  0.0092
 1631CLF     CX 1631   2.515   6.168   5.480  0.0574 -0.0510  0.0315
 1632CLF     CX 1632   6.098   0.088   1.656  0.2838  0.3763 -0.0736
 1633CLF     CX 1633   0.883   2.002   6.563 -0.0796  0.1024 -0.1038
 1634CLF     CX 1634   0.521   1.691   4.919  0.1525  0.4454 -0.1111
 1635CLF     CX 1635   2.823   0.677   5.921  0.1162  0.1888 -0.0344
 1636CLF     CX 1636   5.835   3.557   3.298 -0.2985  0.3744 -0.0578
 1637CLF     CX 1637   6.894   1.132   3.524 -0.0175 -0.0832 -0.1418
 1638CLF     CX 1638   7.152   3.741   7.054  0.0067 -0.1428 -0.2392
 1639CLF     CX 1639   6.964   6.590   1.383  0.0313 -0.1461 -0.0122
 1640CLF     CX 1640   2.149   5.095   2.189  0.3748  0.2055 -0.3355
 1641CLF     CX 1641   5.753   4.949   2.551 -0.2718 -0.0660  0.1454
 1642CLF     CX 1642   3.987   4.272   1.136 -0.0146 -0.0590  0.2519
 1643CLF     CX 1643   5.758   5.929   5.504  0.0340  0.1147  0.0743
 1644CLF     CX 1644   1.307   3.138   4.565 -0.1513  0.1216  0.1182
 1645CLF     CX 1645   3.106   1.692   0.039 -0.1590 -0.3085  0.1253
 1646CLF     CX 1646   0.492   6.939   2.553  0.1411  0.0355 -0.1558
 1647CLF     CX 1647   3.101   0.806   4.219 -0.1366 -0.0441  0.0203
 1648CLF     CX 1648   2.562   1.485   1.776  0.0768 -0.1626  0.0904
 1649CLF     CX 1649   2.326   4.800   3.469 -0.0395  0.1225  0.1976
 1650CLF     CX 1650   6.794   2.020   5.695 -0.2888 -0.0365  0.0794
 1651CLF     CX 1651   0.942   1.967   7.109  0.0422  0.2118 -0.0684
 1652CLF     CX 1652   3.824   2.807   7.078  0.0138  0.1139  0.1443
 1653CLF     CX 1653   3.905   6.821   6.728  0.2796  0.2632  0.1341
 1654CLF     CX 1654   0.015   1.103   1.296  0.0387  0.1172 -0.1753
 1655CLF     CX 1655   4.572   5.676   2.814  0.2878  0.4027  0.3660
 1656CLF     CX 1656   1.821   6.472   7.132 -0.0875  0.0308  0.0981
 1657CLF     CX 1657   6.477   5.153   3.029  0.0414  0.0730 -0.1766
 1658CLF     CX 1658   6.842   1.208   4.486 -0.0834  0.2449  0.1313
 1659CLF     CX 1659   3.243   0.665   5.135  0.1719  0.0174 -0.1167
 1660CLF     CX 1660   5.761   3.871   5.180 -0.3199  0.3298 -0.2637
 1661CLF     CX 1661   5.881   2.913   0.159 -0.2130 -0.0264  0.3117
 1662CLF     CX 1662   2.171   0.423   5.756 -0.0699  0.1724  0.1816
 1663CLF     CX 1663   1.055   1.650   6.223  0.0414  0.2075 -0.2653
 1664CLF     CX 1664   5.500   5.534   6.254 -0.0231  0.0785 -0.0117
 1665CLF     CX 1665   1.577   3.771   0.437 -0.1809 -0.0071 -0.1549
 1666CLF     CX 1666   6.971   0.255   4.316  0.1733 -0.4055 -0.1055
 1667CLF     CX 1667   6.015   0.577   4.527  0.3007 -0.3818 -0.2630
 1668CLF     CX 1668   1.614   2.543   7.017 -0.1894 -0.2060  0.0349
 1669CLF     CX 1669   6.693   3.137   0.416 -0.1142  0.0154 -0.1837
 1670CLF     CX 1670   4.026   6.583   4.461  0.0607 -0.2267 -0.2631
 1671CLF     CX 1671   2.453   3.592   6.314 -0.2907 -0.3846  0.4319
 1672CLF     CX 1672   3.345   4.901   3.293 -0.3941  0.0499  0.0817
 1673CLF     CX 1673   2.869   2.967   2.701  0.1090  0.0180  0.0585
 1674CLF     CX 1674   4.028   6.356   4.989 -0.1061 -0.1989 -0.0220
 1675CLF     CX 1675   0.394   3.159   2.440 -0.0040  0.1896 -0.0894
 1676CLF     CX 1676   6.472   3.841   2.474 -0.0453  0.1965  0.0849
 1677CLF     CX 1677   6.016   6.004   2.059 -0.3175  0.0082 -0.0033
 1678CLF     CX 1678   5.361   5.133   4.493 -0.1560 -0.0424 -0.3069
 1679CLF     CX 1679   2.408   0.953   3.874  0.0611  0.1872  0.2943
 1680CLF     CX 1680   1.848   6.902   3.458 -0.0547  0.0464 -0.0680
 1681CLF     CX 1681   0.404   0.472   3.590  0.0139 -0.1039  0.0753
 1682CLF     CX 1682   3.539   6.700   3.023 -0.0507  0.0063 -0.1426
 1683CLF     CX 1683   5.866   3.021   3.889 -0.1498 -0.4334 -0.0121
 1684CLF     CX 1684   5.045   5.155   1.159 -0.1969 -0.1302  0.0580
 1685CLF     CX 1685   0.151   0.598   6.496 -0.0840 -0.1805  0.1046
 1686CLF     CX 1686   6.069   3.498   3.787  0.2546  0.2453 -0.2819
 1687CLF     CX 1687   5.117   2.870   3.416  0.0830  0.1715 -0.1843
 1688CLF     CX 1688   6.966   1.675   0.836 -0.0597 -0.0475 -0.1322
 1689CLF     CX 1689   2.603   0.467   3.549 -0.0400  0.3259 -0.0265
 1690CLF     CX 1690   5.942   1.917   3.158 -0.1800  0.1186  0.0323
 1691CLF     CX 1691   6.516   0.275   4.427 -0.2551  0.1666 -0.1808
 1692CLF     CX 1692   5.163   5.810   0.492  0.1042 -0.0605  0.1624
 1693CLF     CX 1693   3.079   3.288   0.743  0.2087  0.1328 -0.0547
 1694CLF     CX 1694   0.575   5.047   1.037 -0.2799  0.1162  0.1677
 1695CLF     CX 1695   6.165   7.013   2.190 -0.2799  0.1597 -0.0961
 1696CLF     CX 1696   1.316   6.674   2.566  0.0814  0.0207 -0.1714
 1697CLF     CX 1697   2.564   2.027   2.481  0.1975  0.0020 -0.2695
 1698CLF     CX 1698   4.093   5.398   1.207  0.0622  0.3225  0.0749
 1699CLF     CX 1699   3.166   0.801   6.641 -0.0130 -0.2642  0.0860
 1700CLF     CX 1700   6.704   1.680   2.683  0.0578 -0.1298  0.2452
 1701CLF     CX 1701   4.743   3.049   0.585  0.1847 -0.2490 -0.1192
 1702CLF     CX 1702   1.837   6.685   1.537  0.0305 -0.1215 -0.1219
 1703CLF     CX 1703   0.133   5.361   4.176  0.1666  0.3382  0.1916
 1704CLF     CX 1704   0.738   1.086   1.412 -0.0826 -0.0281  0.2435
 1705CLF     CX 1705   3.030   2.867   5.823  0.2244  0.1064  0.1044
 1706CLF     CX 1706   2.239   2.194   4.100  0.0368 -0.1596 -0.2890
 1707CLF     CX 1707   1.221   4.998   1.464 -0.2043  0.0378  0.1168
 1708CLF     CX 1708   3.805   3.545   3.511  0.2789 -0.1986  0.1367
 1709CLF     CX 1709   6.628   0.450   2.333  0.1245 -0.0427  0.0635
 1710CLF     CX 1710   0.173   2.496   0.940  0.0719  0.1230 -0.2756
 1711CLF     CX 1711   2.843   1.652   1.302  0.0856 -0.1914  0.0229
 1712CLF     CX 1712   2.869   0.498   6.404 -0.2107  0.1770 -0.0423
 1713CLF     CX 1713   1.540   2.042   6.209 -0.1360  0.2718 -0.0511
 1714CLF     CX 1714   0.194   0.170   1.496  0.0275 -0.1084 -0.2011
 1715CLF     CX 1715   3.874   7.020   2.933  0.3288 -0.1699  0.0286
 1716CLF     CX 1716   4.412   5.345   4.046 -0.3012 -0.1891  0.1233
 1717CLF     CX 1717   2.672   4.054   4.572  0.1197 -0.2363  0.0756
 1718CLF     CX 1718   1.302   6.576   1.381 -0.0140 -0.2080 -0.0002
 1719CLF     CX 1719   2.115   5.094   5.003 -0.2149 -0.1235 -0.0117
 1720CLF     CX 1720   6.411   4.384   2.654 -0.3224 -0.0686 -0.1775
 1721CLF     CX 1721   5.118   0.965   2.936  0.2207 -0.4458 -0.3918
 1722CLF     CX 1722   0.219   6.026   0.844  0.1356  0.1717 -0.2536
 1723CLF     CX 1723   2.210   0.026   4.187 -0.1600  0.3038  0.0535
 1724CLF     CX 1724   4.587   5.832   1.895  0.1165  0.0127  0.3197
 1725CLF     CX 1725   0.001   6.301   4.082 -0.3120 -0.1054 -0.1704
 1726CLF     CX 1726   2.699   5.152   0.443 -0.2590 -0.0247 -0.1136
 1727CLF     CX 1727   1.174   0.358   2.260 -0.2256  0.0004 -0.1971
 1728CLF     CX 1728   1.639   0.191   0.538  0.0457  0.3143  0.0323
 1729CLF     CX 1729   3.777   6.344   0.456 -0.1508 -0.0439 -0.1459
 1730CLF     CX 1730   6.206   4.375   6.608 -0.3806  0.0311 -0.0865
 1731CLF     CX 1731   4.359   3.061   2.451 -0.0238 -0.0549 -0.0031
 1732CLF     CX 1732   2.697   2.258   0.129 -0.2454  0.2003 -0.1807
 1733CLF     CX 1733   0.719   0.726   3.001  0.1885  0.0380 -0.0199
 1734CLF     CX 1734   4.832   2.462   6.222  0.0526  0.2853  0.2957
 1735CLF     CX 1735   3.057   4.403   6.679 -0.1318 -0.1744  0.0331
 1736CLF     CX 1736   1.844   1.926   4.703  0.2935 -0.0508  0.0802
 1737CLF     CX 1737   6.973   1.244   2.943 -0.0709  0.3549 -0.1867
 1738CLF     CX 1738   3.944   5.533   5.337  0.1200  0.1787 -0.0165
 1739CLF     CX 1739   6.149   0.988   6.736  0.2053  0.0318  0.1593
 1740CLF     CX 1740   5.602   0.806   3.185 -0.0793  0.1637  0.2642
 1741CLF     CX 1741   0.446   2.949   1.906  0.0510 -0.0385  0.0536
 1742CLF     CX 1742   5.455   1.133   7.042 -0.0127  0.2860  0.0998
 1743CLF     CX 1743   5.752   5.296   0.328 -0.0069  0.0385  0.1120
 1744CLF     CX 1744   6.188   2.281   0.618 -0.0116  0.0542  0.1411
 1745CLF     CX 1745   4.731   3.067   1.571  0.5434 -0.0317  0.2307
 1746CLF     CX 1746   7.157   7.124   7.009 -0.0244 -0.0408 -0.1657
 1747CLF     CX 1747   5.639   6.562   2.257 -0.1153  0.2442 -0.0494
 1748CLF     CX 1748   6.216   2.645   6.497 -0.1341  0.0257 -0.4056
 1749CLF     CX 1749   0.857   4.584   2.181  0.3036  0.0056 -0.0966
 1750CLF     CX 1750   3.368   0.393   4.209 -0.1559  0.2180  0.2875
 1751CLF     CX 1751   6.308   2.897   2.991 -0.2801 -0.3367 -0.3362
 1752CLF     CX 1752   4.107   1.987   3.495  0.1060  0.2366  0.0192
 1753CLF     CX 1753   0.641   2.333   6.810 -0.0413  0.0467  0.1603
 1754CLF     CX 1754   4.697   5.794   3.987 -0.2232 -0.1086 -0.0545
 1755CLF     CX 1755   5.756   0.446   1.456 -0.3986 -0.1020  0.1983
 1756CLF     CX 1756   0.615   0.395   6.386 -0.2969 -0.0350 -0.3482
 1757CLF     CX 1757   6.454   0.851   6.246 -0.0447  0.0887  0.2889
 1758CLF     CX 1758   5.739   4.566   3.630  0.2406  0.2081  0.1006
 1759CLF     CX 1759   6.865   5.100   3.268  0.0766 -0.2208 -0.2141
 1760CLF     CX 1760   0.448   1.629   2.147 -0.1389 -0.0933  0.1151
 1761CLF     CX 1761   0.285   2.125   4.461 -0.0002  0.1229 -0.2531
 1762CLF     CX 1762   0.501   7.151   5.836 -0.1963  0.0805 -0.0601
 1763CLF     CX 1763   1.093   2.216   6.038  0.1190  0.2667 -0.3927
 1764CLF     CX 1764   5.187   1.166   1.508  0.0902  0.1897 -0.1058
 1765CLF     CX 1765   4.303   3.185   5.512 -0.1090  0.0257 -0.0722
 1766CLF     CX 1766   1.748   3.224   6.230 -0.0200  0.0393  0.1668
 1767CLF     CX 1767   6.045   3.695   2.108 -0.2467  0.2961  0.0095
 1768CLF     CX 1768   4.349   5.193   1.591  0.4882  0.1693  0.2114
 1769CLF     CX 1769   6.630   0.645   0.054  0.1653 -0.1309  0.3267
 1770CLF     CX 1770   1.159   0.796   4.397  0.0315  0.0674 -0.3735
 1771CLF     CX 1771   3.408   4.011   1.858  0.0197 -0.1538  0.2000
 1772CLF     CX 1772   5.824   5.928   1.208  0.4333 -0.2652 -0.2766
 1773CLF     CX 1773   5.151   0.983   3.895 -0.1536  0.0883 -0.3053
 1774CLF     CX 1774   4.118   4.003   5.740 -0.4449 -0.1488  0.2565
 1775CLF     CX 1775   6.230   2.374   2.738 -0.2260  0.1224  0.1121
 1776CLF     CX 1776   4.311   3.282   3.573  0.1297  0.2354 -0.0354
 1777CLF     CX 1777   2.246   0.935   2.938 -0.2680 -0.3908 -0.0431
 1778CLF     CX 1778   6.908   0.645   6.269 -0.0942  0.0739  0.1540
 1779CLF     CX 1779   2.453   3.065   3.872 -0.0503 -0.0692 -0.2071
 1780CLF     CX 1780   2.105   0.748   2.430 -0.0493 -0.3730  0.0996
 1781CLF     CX 1781   3.664   3.112   5.811 -0.1628  0.3039 -0.0347
 1782CLF     CX 1782   5.915   2.538   4.853 -0.0552  0.0890  0.0120
 1783CLF     CX 1783   3.623   1.474   4.685  0.1652  0.2150  0.1249
 1784CLF     CX 1784   1.132   2.504   4.562 -0.1779  0.1471  0.3103
 1785CLF     CX 1785   2.488   5.861   0.024 -0.3709  0.0757  0.1684
 1786CLF     CX 1786   6.260   0.321   6.845  0.0796 -0.0577 -0.0764
 1787CLF     CX 1787   5.756   6.071   4.619  0.0145  0.0374 -0.1760
 1788CLF     CX 1788   1.654   5.066   4.614  0.0473 -0.1372 -0.0264
 1789CLF     CX 1789   3.574   1.033   3.910 -0.3538 -0.3587  0.0411
 1790CLF     CX 1790   4.733   5.031   5.289  0.6068  0.1611  0.0836
 1791CLF     CX 1791   2.626   5.269   1.328  0.1739  0.1250 -0.0402
 1792CLF     CX 1792   2.504   1.559   0.917 -0.0788  0.2336 -0.0974
 1793CLF     CX 1793   6.505   1.644   1.237  0.1354  0.1539 -0.0193
 1794CLF     CX 1794   0.137   0.499   1.917  0.1678  0.0810  0.0199
 1795CLF     CX 1795   3.879   3.010   3.476 -0.0756 -0.1811 -0.0864
 1796CLF     CX 1796   2.556   5.705   1.045  0.1058 -0.1531  0.3440
 1797CLF     CX 1797   0.175   2.644   7.070 -0.0093  0.0126  0.1786
 1798CLF     CX 1798   6.572   0.996   3.114  0.5265 -0.1817 -0.3062
 1799CLF     CX 1799   5.754   6.408   1.029 -0.0949 -0.1349 -0.2022
 1800CLF     CX 1800   4.094   4.674   4.830 -0.1754  0.4550  0.1822
 1801CLF     CX 1801   3.002   1.823   0.824 -0.2769  0.1953  0.0154
 1802CLF     CX 1802   5.022   5.300   6.282 -0.0279 -0.2835  0.0116
 1803CLF     CX 1803   2.533   2.516   1.591  0.2943 -0.0160 -0.0837
 1804CLF     CX 1804   0.060   3.101   0.148 -0.0176  0.2049  0.1223
 1805CLF     CX 1805   1.282   3.676   1.930 -0.2031  0.1286  0.0338
 1806CLF     CX 1806   5.648   3.608   2.485 -0.1063 -0.1832 -0.0327
 1807CLF     CX 1807   6.998   5.796   6.667 -0.1552 -0.1330 -0.0631
 1808CLF     CX 1808   2.223   0.727   6.704  0.0671 -0.0457 -0.2592
 1809CLF     CX 1809   3.324   2.853   0.810  0.0461  0.0464  0.2956
 1810CLF     CX 1810   1.399   1.883   6.727  0.2298 -0.0352  0.1076
 1811CLF     CX 1811   6.225   0.374   5.588 -0.1566 -0.0479 -0.1225
 1812CLF     CX 1812   6.459   5.874   1.970  0.1737 -0.0212 -0.1133
 1813CLF     CX 1813   0.357   4.632   2.371 -0.4870  0.0130  0.3460
 1814CLF     CX 1814   1.135   1.437   1.412 -0.1883 -0.1693 -0.4907
 1815CLF     CX 1815   1.682   3.329   4.187 -0.2424 -0.0188  0.0939
 1816CLF     CX 1816   1.545   0.714   2.397  0.4238 -0.5558 -0.1342
 1817CLF     CX 1817   5.354   5.560   4.688  0.2318 -0.1292  0.0260
 1818CLF     CX 1818   2.581   4.671   0.368 -0.1058  0.2487  0.0342
 1819CLF     CX 1819   2.172   0.558   1.289 -0.3958 -0.0911 -0.0023
 1820CLF     CX 1820   0.200   0.635   4.456 -0.1443 -0.2111  0.0643
 1821CLF     CX 1821   1.672   2.703   1.150 -0.0264  0.0439  0.0163
 1822CLF     CX 1822   6.149   2.892   5.695  0.1908  0.1890  0.1102
 1823CLF     CX 1823   4.313   2.553   6.916 -0.1813 -0.3222 -0.2488
 1824CLF     CX 1824   1.900   5.246   3.710  0.0499  0.0959 -0.1272
 1825CLF     CX 1825   5.602   3.385   6.449 -0.1888  0.1268 -0.0592
 1826CLF     CX 1826   6.076   1.508   4.302  0.1139  0.0036 -0.0734
 1827CLF     CX 1827   2.451   4.514   1.816  0.0813 -0.1775  0.0299
 1828CLF     CX 1828   1.405   6.210   4.790 -0.2371 -0.0758  0.1887
 1829CLF     CX 1829   6.800   5.923   2.344  0.0141 -0.3433 -0.1038
 1830CLF     CX 1830   0.891   4.459   5.012  0.0767 -0.0579  0.0270
 1831CLF     CX 1831   3.489   1.748   4.271 -0.0829  0.1901 -0.3777
 1832CLF     CX 1832   6.123   3.855   4.639  0.3801  0.3099  0.0394
 1833CLF     CX 1833   6.275   0.466   0.771  0.2248  0.1490 -0.0880
 1834CLF     CX 1834   4.053   2.701   2.250  0.1535  0.1539 -0.2051
 1835CLF     CX 1835   6.957   3.823   5.745 -0.1550  0.3653 -0.1129
 1836CLF     CX 1836   4.150   3.174   4.921  0.0463  0.0512  0.0563
 1837CLF     CX 1837   1.268   2.790   4.085  0.0671 -0.1180  0.3051
 1838CLF     CX 1838   1.907   3.201   1.774 -0.2211 -0.1180 -0.1253
 1839CLF     CX 1839   4.395   6.838   6.519 -0.0347  0.0764  0.4108
 1840CLF     CX 1840   6.794   3.377   4.310 -0.1571  0.0594  0.1537
 1841CLF     CX 1841   1.502   1.890   0.746 -0.1660  0.2332 -0.0404
 1842CLF     CX 1842   1.659   6.693   3.026  0.0991  0.0911  0.0945
 1843CLF     CX 1843   6.774   3.882   5.117 -0.1955  0.2942 -0.2185
 1844CLF     CX 1844   4.037   0.822   6.759  0.1734  0.0391 -0.1645
 1845CLF     CX 1845   3.244   6.157   3.100  0.1809  0.3973  0.0085
 1846CLF     CX 1846   0.187   0.927   6.932  0.2358  0.0404  0.0755
 1847CLF     CX 1847   2.623   0.210   4.457 -0.3206  0.3591  0.2722
 1848CLF     CX 1848   1.340   1.186   6.077 -0.0561  0.0898  0.5118
 1849CLF     CX 1849   3.540   3.827   2.429 -0.1357 -0.0295 -0.1516
 1850CLF     CX 1850   2.641   1.398   6.136 -0.0411  0.0220  0.0578
 1851CLF     CX 1851   5.002   3.787   1.646 -0.1903  0.2352  0.0101
 1852CLF     CX 1852   5.932   1.323   3.301 -0.1565 -0.1077  0.2771
 1853CLF     CX 1853   2.399   6.480   6.273  0.2458 -0.0782 -0.1067
 1854CLF     CX 1854   3.080   6.265   4.566  0.0012  0.0384  0.0388
 1855CLF     CX 1855   3.044   5.727   4.766 -0.1030  0.1574  0.2120
 1856CLF     CX 1856   3.646   3.263   3.092 -0.0129  0.2659  0.3772
 1857CLF     CX 1857   3.073   3.871   6.880 -0.0490  0.0638 -0.4463
 1858CLF     CX 1858   6.901   5.360   5.520 -0.1629 -0.2126 -0.2537
 1859CLF     CX 1859   5.634   6.277   4.045 -0.0164 -0.1613 -0.0019
 1860CLF     CX 1860   2.600   0.933   3.329 -0.0866 -0.1743 -0.2079
 1861CLF     CX 1861   5.692   7.130   1.301 -0.2029  0.1608 -0.0502
 1862CLF     CX 1862   2.747   6.701   3.707 -0.2624 -0.1427 -0.0681
 1863CLF     CX 1863   5.220   4.680   4.662 -0.5361 -0.1327 -0.0876
 1864CLF     CX 1864   3.815   4.235   4.934 -0.0712 -0.3003 -0.3752
 1865CLF     CX 1865   6.610   0.404   4.895  0.2123 -0.0870 -0.0936
 1866CLF     CX 1866   1.410   3.419   6.486 -0.1661  0.0936 -0.2032
 1867CLF     CX 1867   5.716   3.301   6.927  0.2769 -0.0665  0.2600
 1868CLF     CX 1868   1.769   0.814   5.841  0.0015 -0.0919  0.0217
 1869CLF     CX 1869   2.584   6.402   4.216 -0.0049  0.0721  0.0090
 1870CLF     CX 1870   4.331   5.861   7.089  0.1943 -0.1313  0.0169
 1871CLF     CX 1871   2.768   6.476   5.880  0.0622 -0.1392 -0.1095
 1872CLF     CX 1872   2.107   4.706   6.539 -0.0156 -0.3473 -0.2082
 1873CLF     CX 1873   2.211   4.592   2.277 -0.2327  0.0982 -0.3058
 1874CLF     CX 1874   4.023   0.184   0.673  0.0193  0.0547 -0.1808
 1875CLF     CX 1875   4.780   2.469   3.214 -0.1130  0.2876 -0.0875
 1876CLF     CX 1876   6.887   2.889   1.129  0.0625  0.4703  0.2278
 1877CLF     CX 1877   4.520   6.787   1.535 -0.1928 -0.1151 -0.2162
 1878CLF     CX 1878   1.687   1.120   2.599  0.1912  0.2034 -0.0211
 1879CLF     CX 1879   2.247   0.481   4.172 -0.1888  0.2200 -0.2176
 1880CLF     CX 1880   2.885   3.601   4.610  0.0046 -0.0534  0.0399
 1881CLF     CX 1881   0.778   4.574   4.068  0.1420 -0.1628 -0.1703
 1882CLF     CX 1882   3.345   3.194   7.149  0.0909 -0.0753 -0.1780
 1883CLF     CX 1883   6.635   3.211   2.158 -0.0169  0.0611  0.1446
 1884CLF     CX 1884   1.003   2.371   4.001  0.0359  0.1208 -0.1988
 1885CLF     CX 1885   0.169   6.604   1.027 -0.4939  0.0053  0.2223
 1886CLF     CX 1886   2.775   4.798   2.060  0.0091 -0.1279  0.0096
 1887CLF     CX 1887   6.254   4.669   4.787 -0.0336 -0.1625  0.2157
 1888CLF     CX 1888   3.291   4.273   2.333 -0.2466 -0.2256  0.3563
 1889CLF     CX 1889   2.251   3.036   1.339  0.0533 -0.0159 -0.1126
 1890CLF     CX 1890   0.678   1.965   6.101 -0.0659 -0.0843 -0.1851
 1891CLF     CX 1891   2.394   6.756   6.754  0.1158 -0.1525 -0.1151
 1892CLF     CX 1892   2.977   5.429   3.876 -0.3508 -0.0725 -0.0071
 1893CLF     CX 1893   5.919   0.560   6.554  0.2536  0.3068 -0.1216
 1894CLF     CX 1894   1.181   5.078   5.532  0.2102  0.0121 -0.0585
 1895CLF     CX 1895   0.921   1.956   3.230  0.0202 -0.1013 -0.0564
 1896CLF     CX 1896   2.824   4.272   6.275  0.1259  0.1059  0.0137
 1897CLF     CX 1897   5.757   4.805   4.771  0.0880 -0.0502  0.0135
 1898CLF     CX 1898   1.550   5.838   2.312 -0.1876  0.2478  0.3523
 1899CLF     CX 1899   0.698   3.397   1.778 -0.0724  0.1035 -0.1020
 1900CLF     CX 1900   4.860   1.737   5.483  0.1819 -0.1797  0.2375
 1901CLF     CX 1901   0.120   2.130   5.474 -0.1606 -0.2250 -0.0101
 1902CLF     CX 1902   1.784   0.377   4.433 -0.0865 -0.2118 -0.0724
 1903CLF     CX 1903   6.481   1.500   6.330 -0.1191  0.0292  0.1372
 1904CLF     CX 1904   4.557   6.512   5.253  0.3082  0.0118 -0.3223
 1905CLF     CX 1905   2.612   3.980   6.627  0.1976  0.3694  0.1096
 1906CLF     CX 1906   2.167   3.412   3.782 -0.3048 -0.1096  0.1412
 1907CLF     CX 1907   6.840   4.877   5.638  0.1199 -0.0396 -0.2424
 1908CLF     CX 1908   1.511   5.391   5.130  0.1979  0.3052  0.1253
 1909CLF     CX 1909   2.629   6.809   3.079  0.0164  0.1141  0.2398
 1910CLF     CX 1910   3.664   0.094   7.002 -0.0773  0.1234  0.3701
 1911CLF     CX 1911   5.938   1.579   2.015 -0.0659 -0.2950 -0.1096
 1912CLF     CX 1912   1.369   3.173   5.385  0.0034 -0.1698 -0.4027
 1913CLF     CX 1913   2.056   3.939   0.214 -0.2016 -0.1236 -0.0200
 1914CLF     CX 1914   3.465   3.774   1.199 -0.1370  0.2576 -0.2293
 1915CLF     CX 1915   3.913   3.740   2.105  0.0961 -0.2676 -0.2019
 1916CLF     CX 1916   3.804   5.893   3.757 -0.1223  0.4079  0.2184
 1917CLF     CX 1917   4.302   3.950   0.414  0.1330  0.0883  0.2226
 1918CLF     CX 1918   5.507   6.261   0.055 -0.0159 -0.2727  0.0648
 1919CLF     CX 1919   7.098   3.449   5.372  0.0711  0.0752  0.0225
 1920CLF     CX 1920   1.072   3.833   4.283 -0.3583  0.0792  0.2020
 1921CLF     CX 1921   6.437   7.009   0.544 -0.2718  0.0797 -0.1321
 1922CLF     CX 1922   0.609   0.882   5.451  0.1338 -0.0349  0.1368
 1923CLF     CX 1923   6.256   5.964   2.616 -0.0487  0.0673 -0.1459
 1924CLF     CX 1924   6.981   1.604   5.332 -0.1224  0.1777 -0.0567
 1925CLF     CX 1925   1.924   0.495   5.359  0.2590 -0.3379  0.1883
 1926CLF     CX 1926   3.003   0.193   1.868 -0.2820  0.1450  0.1330
 1927CLF     CX 1927   4.481   2.743   2.903  0.2304 -0.0585  0.1782
 1928CLF     CX 1928   5.087   2.658   4.428 -0.0046 -0.0924  0.0487
 1929CLF     CX 1929   5.710   0.285   5.559  0.0713 -0.2048  0.2093
 1930CLF     CX 1930   4.874   0.050   2.097 -0.1343  0.0147  0.3085
 1931CLF     CX 1931   4.687   0.711   1.605 -0.0971 -0.3184 -0.0608
 1932CLF     CX 1932   3.782   1.923   1.143  0.3205 -0.2805  0.1081
 1933CLF     CX 1933   0.998   3.582   3.799  0.1268  0.0468 -0.1602
 1934CLF     CX 1934   4.487   3.940   2.861  0.0320  0.3597 -0.1161
 1935CLF     CX 1935   2.168   5.346   1.377  0.1840  0.4506 -0.0819
 1936CLF     CX 1936   1.819   2.857   0.424 -0.0291 -0.0928 -0.2870
 1937CLF     CX 1937   5.359   2.628   4.898  0.1745 -0.4034 -0.0288
 1938CLF     CX 1938   1.580   3.719   0.954  0.0163 -0.1927  0.3917
 1939CLF     CX 1939   2.728   5.072   3.199 -0.2906 -0.1467 -0.1154
 1940CLF     CX 1940   5.408   2.779   0.873 -0.1336 -0.0291 -0.1424
 1941CLF     CX 1941   6.527   2.453   1.548 -0.2625  0.0414 -0.0589
 1942CLF     CX 1942   5.986   5.328   3.436 -0.1118 -0.2074 -0.1208
 1943CLF     CX 1943   2.286   0.811   5.496  0.0673 -0.3207  0.2450
 1944CLF     CX 1944   2.317   2.129   5.490  0.3061 -0.2626  0.1327
 1945CLF     CX 1945   6.946   6.275   0.937  0.1929 -0.0217 -0.0368
 1946CLF     CX 1946   2.919   1.388   3.305 -0.1423 -0.1248 -0.1588
 1947CLF     CX 1947   3.628   4.804   5.977  0.1182 -0.0132 -0.1113
 1948CLF     CX 1948   1.066   6.469   5.872  0.1961  0.2528 -0.0084
 1949CLF     CX 1949   5.846   3.325   6.008 -0.0746  0.0898  0.0470
 1950CLF     CX 1950   1.140   0.044   1.021  0.2634  0.1132  0.1693
 1951CLF     CX 1951   3.293   0.654   2.512  0.2125 -0.0595 -0.0167
 1952CLF     CX 1952   2.919   3.820   5.036  0.1533  0.2692  0.0795
 1953CLF     CX 1953   6.829   6.804   3.509  0.0096  0.1059 -0.1532
 1954CLF     CX 1954   1.288   4.070   5.457 -0.0428  0.1998 -0.1379
 1955CLF     CX 1955   3.141   6.588   6.260 -0.1458 -0.0632  0.0862
 1956CLF     CX 1956   2.986   1.989   4.098 -0.1164 -0.1339  0.1530
 1957CLF     CX 1957   2.645   0.616   1.438  0.0545 -0.0459 -0.5388
 1958CLF     CX 1958   4.403   6.298   2.417  0.1399 -0.1185 -0.2171
 1959CLF     CX 1959   3.018   1.064   4.666 -0.0564  0.1443  0.0898
 1960CLF     CX 1960   6.217   4.271   1.401 -0.1641  0.1439  0.0111
 1961CLF     CX 1961   2.906   6.045   0.978 -0.3198 -0.2513 -0.1751
 1962CLF     CX 1962   0.235   0.499   0.094  0.0973  0.0570 -0.1231
 1963CLF     CX 1963   4.518   0.989   6.869  0.0309  0.1168  0.0050
 1964CLF     CX 1964   1.488   5.932   0.536  0.1567 -0.2593  0.0095
 1965CLF     CX 1965   1.631   2.052   3.592  0.0611 -0.0609 -0.1785
 1966CLF     CX 1966   4.157   2.424   2.664 -0.1250 -0.1741 -0.0875
 1967CLF     CX 1967   6.561   0.786   1.010  0.0667  0.1779  0.0458
 1968CLF     CX 1968   4.521   5.676   1.376 -0.0423  0.3312 -0.0220
 1969CLF     CX 1969   1.184   4.401   3.129  0.1884 -0.0613  0.0367
 1970CLF     CX 1970   0.130   5.607   4.614  0.1649 -0.4357 -0.0954
 1971CLF     CX 1971   4.183   3.010   6.621  0.2842  0.0849  0.1234
 1972CLF     CX 1972   2.844   0.147   0.412  0.3639 -0.0940  0.1589
 1973CLF     CX 1973   4.003   2.430   3.582  0.3502 -0.1351  0.0175
 1974CLF     CX 1974   1.383   0.007   2.629 -0.1938  0.0595  0.0163
 1975CLF     CX 1975   1.542   6.057   4.300  0.3121 -0.2738 -0.1895
 1976CLF     CX 1976   6.262   0.012   0.963 -0.0446 -0.1372  0.1215
 1977CLF     CX 1977   6.419   1.973   3.157  0.0993 -0.3108  0.0666
 1978CLF     CX 1978   2.420   6.895   1.929 -0.2639  0.2529  0.3243
 1979CLF     CX 1979   5.237   1.520   1.896 -0.4895 -0.1563  0.1078
 1980CLF     CX 1980   7.011   5.389   6.454  0.1469  0.1388  0.0397
 1981CLF     CX 1981   5.144   3.375   0.649  0.2789  0.3747  0.1225
 1982CLF     CX 1982   1.455   4.860   3.869  0.3904 -0.0449  0.2451
 1983CLF     CX 1983   0.201   2.985   1.232  0.0805  0.3079  0.1054
 1984CLF     CX 1984   6.713   6.701   2.063 -0.1440 -0.0872 -0.0852
 1985CLF     CX 1985   5.677   0.343   3.077  0.2158  0.1206  0.2691
 1986CLF     CX 1986   3.528   5.337   6.715  0.0921 -0.1789  0.1721
 1987CLF     CX 1987   5.926   2.461   2.212 -0.1939 -0.2213 -0.1294
 1988CLF     CX 1988   1.299   0.646   6.192  0.0422  0.2255 -0.3742
 1989CLF     CX 1989   5.565   0.523   2.236  0.0507 -0.0530  0.1471
 1990CLF     CX 1990   3.567   3.921   6.578 -0.2925 -0.0138 -0.2320
 1991CLF     CX 1991   1.494   4.652   4.359  0.0394 -0.0809 -0.0691
 1992CLF     CX 1992   5.152   0.095   5.088  0.1288  0.4054  0.1289
 1993CLF     CX 1993   5.094   5.505   5.842 -0.0955 -0.2053  0.1513
 1994CLF     CX 1994   0.928   0.922   4.919  0.0499 -0.1448 -0.0707
 1995CLF     CX 1995   5.122   0.063   3.116 -0.0068  0.1183  0.3236
 1996CLF     CX 1996   0.500   4.991   4.149 -0.0402  0.1553  0.1986
 1997CLF     CX 1997   2.591   1.848   3.208  0.1660  0.2883 -0.0973
 1998CLF     CX 1998   1.688   2.810   4.334 -0.1534 -0.1669  0.1335
 1999CLF     CX 1999   6.639   3.602   3.796 -0.0831  0.0217  0.0544
 2000CLF     CX 2000   1.391   2.109   5.460  0.0406  0.2135 -0.1439
 2001CLF     CX 2001   5.038   0.745   5.904  0.2282 -0.1391 -0.2726
 2002CLF     CX 2002   1.923   1.421   0.867 -0.0581  0.0737  0.1225
 2003CLF     CX 2003   2.847   1.674   2.749  0.4353  0.0504 -0.2750
 2004CLF     CX 2004   3.366   1.407   6.500 -0.1777  0.5543 -0.1729
 2005CLF     CX 2005   2.653   5.813   5.104  0.2504 -0.2989  0.3386
 2006CLF     CX 2006   3.633   0.762   4.343 -0.3930 -0.2055  0.0456
 2007CLF     CX 2007   0.430   6.215   1.728 -0.0738 -0.3841 -0.1664
 2008CLF     CX 2008   0.927   1.558   6.703 -0.3044 -0.2640 -0.3011
 2009CLF     CX 2009   5.420   0.756   0.744 -0.1220 -0.3439 -0.1189
 2010CLF     CX 2010   3.937   3.517   2.597 -0.0363  0.1185 -0.2057
 2011CLF     CX 2011   7.094   0.410   5.021 -0.3610  0.1952  0.0432
 2012CLF     CX 2012   1.223   1.620   5.293 -0.0340 -0.1741 -0.0017
 2013CLF     CX 2013   4.898   6.284   0.281 -0.1395  0.1732 -0.0431
 2014CLF     CX 2014   3.707   0.639   0.675  0.0002  0.0793  0.2173
 2015CLF     CX 2015   2.715   6.777   1.314 -0.1082 -0.0103  0.1267
 2016CLF     CX 2016   1.891   1.799   3.184  0.1710  0.1709  0.1380
 2017CLF     CX 2017   4.227   7.145   1.756 -0.0090  0.1809  0.2457
 2018CLF     CX 2018   0.025   0.860   0.317 -0.0259 -0.1452 -0.0953
 2019CLF     CX 2019   6.766   6.028   1.401  0.3915 -0.1387  0.1949
 2020CLF     CX 2020   5.848   3.215   2.770 -0.0308 -0.0358  0.2771
 2021CLF     CX 2021   0.538   1.384   3.681  0.2450 -0.2204 -0.1202
 2022CLF     CX 2022   0.627   1.376   7.102  0.0593 -0.0119  0.0134
 2023CLF     CX 2023   3.720   5.058   2.967  0.2588  0.0167 -0.1006
 2024CLF     CX 2024   5.823   2.279   5.287 -0.0208 -0.0038 -0.2825
 2025CLF     CX 2025   2.000   5.596   2.308 -0.1620 -0.1985 -0.2086
 2026CLF     CX 2026   5.574   2.563   0.269 -0.0010  0.1079  0.1331
 2027CLF     CX 2027   6.678   6.203   6.996 -0.1963  0.2324  0.0955
 2028CLF     CX 2028   6.107   3.816   5.610 -0.0574 -0.2166  0.2911
 2029CLF     CX 2029   3.135   5.204   4.976 -0.1738  0.3694  0.0468
 2030CLF     CX 2030   0.660   4.064   4.469 -0.0461 -0.2661  0.2264
 2031CLF     CX 2031   2.467   6.234   0.543 -0.0803  0.2810 -0.1992
 2032CLF     CX 2032   5.396   4.425   0.100 -0.4087  0.1173  0.2751
 2033CLF     CX 2033   6.188   5.022   2.152  0.1231  0.0447  0.0987
 2034CLF     CX 2034   0.639   1.947   3.984 -0.3074 -0.0016  0.1920
 2035CLF     CX 2035   6.596   5.003   1.862  0.2410  0.1111 -0.2061
 2036CLF     CX 2036   6.989   3.194   3.831  0.0054  0.0016 -0.1307
 2037CLF     CX 2037   4.865   4.358   2.493  0.0724  0.0996 -0.1623
 2038CLF     CX 2038   6.177   3.990   2.923  0.0075  0.1011  0.0664
 2039CLF     CX 2039   5.923   4.295   4.711 -0.1133  0.3753 -0.1215
 2040CLF     CX 2040   1.145   3.979   4.866 -0.0280 -0.2050 -0.3837
 2041CLF     CX 2041   2.775   6.327   1.547  0.0383  0.0157 -0.0120
 2042CLF     CX 2042   3.857   6.348   2.836 -0.2878 -0.0380 -0.1148
 2043CLF     CX 2043   4.150   5.008   5.786 -0.1699  0.1080  0.2172
 2044CLF     CX 2044   3.315   5.992   7.027  0.0941  0.3391 -0.2901
 2045CLF     CX 2045   2.349   6.093   2.562  0.1192  0.2806 -0.2444
 2046CLF     CX 2046   5.209   6.431   6.310 -0.1682  0.2214  0.0379
 2047CLF     CX 2047   0.762   4.881   2.615  0.1001 -0.1711  0.1840
 2048CLF     CX 2048   6.639   5.551   2.649  0.1540  0.2306  0.1380
 2049CLF     CX 2049   3.840   2.465   6.589  0.1144  0.1972 -0.1457
 2050CLF     CX 2050   6.170   3.217   0.467 -0.0515 -0.0207  0.0813
 2051CLF     CX 2051   2.023   0.910   0.224  0.2771  0.0063 -0.0072
 2052CLF     CX 2052   0.625   4.361   3.331 -0.2143  0.2011 -0.1149
 2053CLF     CX 2053   0.786   2.168   4.635  0.1885  0.0486  0.1472
 2054CLF     CX 2054   5.858   5.519   0.846  0.1426  0.2513  0.0758
 2055CLF     CX 2055   6.561   1.000   1.507 -0.0154  0.0037  0.0597
 2056CLF     CX 2056   0.408   0.834   1.696 -0.1715 -0.2756  0.0072
 2057CLF     CX 2057   6.040   1.770   1.499  0.1324  0.0628  0.1068
 2058CLF     CX 2058   5.399   5.893   5.852 -0.0447  0.1408  0.0247
 2059CLF     CX 2059   5.054   0.275   6.051 -0.1623  0.1162 -0.2248
 2060CLF     CX 2060   4.854   3.056   6.213 -0.4465 -0.2290  0.1807
 2061CLF     CX 2061   1.058   6.342   5.377 -0.0412  0.1086 -0.2025
 2062CLF     CX 2062   2.686   5.351   4.887  0.1594 -0.2781  0.0504
 2063CLF     CX 2063   6.891   5.187   4.423 -0.1430 -0.0708  0.0902
 2064CLF     CX 2064   4.464   3.920   1.814 -0.1080  0.2468  0.1715
 2065CLF     CX 2065   3.160   6.953   1.155 -0.0872 -0.0444 -0.0562
 2066CLF     CX 2066   0.488   4.695   6.240 -0.0560 -0.0137  0.1392
 2067CLF     CX 2067   5.684   0.020   0.771 -0.2216 -0.2366  0.0639
 2068CLF     CX 2068   3.676   5.765   6.722  0.2003 -0.1969 -0.3179
 2069CLF     CX 2069   4.913   5.650   1.038 -0.2916 -0.1688  0.0623
 2070CLF     CX 2070   3.205   5.813   4.096  0.1949  0.0578  0.3095
 2071CLF     CX 2071   1.732   4.313   6.678  0.1193  0.4012 -0.0766
 2072CLF     CX 2072   5.403   5.796   0.886 -0.0796  0.3338  0.0275
 2073CLF     CX 2073   2.640   0.549   1.997 -0.1670  0.1262  0.0994
 2074CLF     CX 2074   5.086   1.679   1.440 -0.2929 -0.1554  0.0569
 2075CLF     CX 2075   0.293   3.456   1.337  0.0813  0.1301 -0.1520
 2076CLF     CX 2076   4.006   6.489   0.045 -0.0082  0.1484 -0.1773
 2077CLF     CX 2077   4.408   1.227   6.281  0.1958  0.0467  0.4030
 2078CLF     CX 2078   3.740   3.860   0.701 -0.1058  0.2063 -0.1549
 2079CLF     CX 2079   1.799   0.363   0.968 -0.1994  0.1012  0.0704
 2080CLF     CX 2080   6.820   1.157   6.096  0.0252 -0.2915 -0.0037
 2081CLF     CX 2081   3.904   1.464   4.158  0.2260 -0.2595  0.3159
 2082CLF     CX 2082   1.775   1.699   0.039 -0.2601  0.0077 -0.1287
 2083CLF     CX 2083   1.717   4.416   5.513 -0.1065  0.2125  0.1327
 2084CLF     CX 2084   1.681   0.130   4.941  0.0699  0.2473  0.1396
 2085CLF     CX 2085   6.301   5.698   3.533  0.2468  0.2445 -0.1924
 2086CLF     CX 2086   2.948   5.823   0.319  0.0830 -0.0177  0.2190
 2087CLF     CX 2087   5.554   1.191   2.773 -0.0746  0.1213  0.0627
 2088CLF     CX 2088   6.012   1.614   5.393 -0.2664  0.2301  0.1870
 2089CLF     CX 2089   6.816   4.805   0.132 -0.1118  0.1905  0.1066
 2090CLF     CX 2090   6.225   6.543   0.776  0.0547  0.1938  0.2550
 2091CLF     CX 2091   1.271   4.576   5.367  0.1087 -0.0603  0.0741
 2092CLF     CX 2092   0.972   1.238   0.981 -0.2590 -0.1633  0.0428
 2093CLF     CX 2093   0.788   6.758   1.118  0.2995  0.0021 -0.0563
 2094CLF     CX 2094   1.140   3.614   3.037  0.1961  0.1400 -0.0583
 2095CLF     CX 2095   0.618   5.158   5.586  0.1038  0.1746  0.2216
 2096CLF     CX 2096   0.706   2.712   5.120  0.2228 -0.1868 -0.2153
 2097CLF     CX 2097   6.962   2.837   6.119  0.0826 -0.1712 -0.0074
 2098CLF     CX 2098   0.601   0.234   0.296 -0.3615  0.1129  0.2198
 2099CLF     CX 2099   3.581   7.128   6.108  0.1113  0.1249 -0.0101
 2100CLF     CX 2100   2.827   4.739   2.630 -0.5073  0.2114  0.0805
 2101CLF     CX 2101   3.725   2.450   0.743  0.2194  0.1053  0.2366
 2102CLF     CX 2102   3.418   2.725   5.413  0.2688 -0.2494 -0.0832
 2103CLF     CX 2103   4.956   4.069   3.051  0.0728 -0.1619  0.1517
 2104CLF     CX 2104   7.037   4.300   3.784  0.0826 -0.2397 -0.0741
 2105CLF     CX 2105   7.087   3.601   2.558 -0.0300  0.1199  0.1030
 2106CLF     CX 2106   5.971   0.075   4.769 -0.2054 -0.2634 -0.0681
 2107CLF     CX 2107   0.180   4.035   3.489  0.0114 -0.0554  0.0410
 2108CLF     CX 2108   6.656   4.439   6.536  0.0719 -0.0029  0.0276
 2109CLF     CX 2109   0.426   5.515   0.944 -0.2410  0.0976 -0.1681
 2110CLF     CX 2110   2.005   2.831   2.912 -0.1491  0.1569  0.3171
 2111CLF     CX 2111   2.201   4.232   3.260  0.1380 -0.0332  0.2468
 2112CLF     CX 2112   4.528   2.567   5.801  0.0957 -0.0747  0.0806
 2113CLF     CX 2113   4.408   4.355   2.209 -0.1733  0.0338  0.2076
 2114CLF     CX 2114   0.212   4.049   1.336  0.0085 -0.0926 -0.1139
 2115CLF     CX 2115   3.661   5.779   1.262 -0.0394  0.0123 -0.2758
 2116CLF     CX 2116   2.933   2.967   6.869 -0.1923 -0.1627  0.2974
 2117CLF     CX 2117   0.508   0.931   0.123 -0.2744 -0.1908 -0.2299
 2118CLF     CX 2118   3.568   0.717   5.517 -0.2184 -0.0034  0.1189
 2119CLF     CX 2119   1.629   5.425   7.115  0.0997  0.1452 -0.0774
 2120CLF     CX 2120   0.146   3.400   4.177  0.0449  0.0647  0.3378
 2121CLF     CX 2121   3.142   2.920   0.357 -0.1187 -0.2630 -0.3711
 2122CLF     CX 2122   6.213   3.321   1.886 -0.1567  0.1945 -0.0426
 2123CLF     CX 2123   6.563   5.813   3.977  0.1173 -0.1436  0.1172
 2124CLF     CX 2124   2.811   0.171   2.843 -0.1639  0.1786 -0.1173
 2125CLF     CX 2125   0.467   1.746   5.406  0.0494 -0.2204  0.2502
 2126CLF     CX 2126   5.648   2.869   3.063 -0.2693 -0.0860  0.4156
 2127CLF     CX 2127   0.019   2.909   6.701 -0.2583 -0.0414  0.1911
 2128CLF     CX 2128   6.788   1.804   3.812  0.0516 -0.0107  0.0198
 2129CLF     CX 2129   2.537   5.604   0.496  0.0179  0.0654 -0.0632
 2130CLF     CX 2130   3.072   1.124   0.157 -0.0964  0.0946 -0.2589
 2131CLF     CX 2131   7.047   1.337   4.920 -0.2980 -0.0041  0.0570
 2132CLF     CX 2132   2.605   2.506   3.391 -0.1144  0.1570 -0.0526
 2133CLF     CX 2133   1.541   6.359   1.070  0.4686 -0.2100  0.1540
 2134CLF     CX 2134   0.122   1.318   0.350  0.2834 -0.0247 -0.1697
 2135CLF     CX 2135   7.034   1.633   6.030  0.1236  0.0989 -0.2126
 2136CLF     CX 2136   6.899   2.267   4.711  0.3686 -0.2914  0.6127
 2137CLF     CX 2137   6.480   1.479   3.994 -0.0072  0.1063  0.1665
 2138CLF     CX 2138   4.324   4.314   1.512 -0.0441  0.0749  0.0121
 2139CLF     CX 2139   5.650   1.760   0.848  0.1848  0.0982  0.2289
 2140CLF     CX 2140   1.406   1.115   0.785  0.1440 -0.0430 -0.0461
 2141CLF     CX 2141   2.399   5.562   6.795  0.0188  0.0207 -0.1107
 2142CLF     CX 2142   5.879   6.869   4.405 -0.0295  0.0767  0.1670
 2143CLF     CX 2143   5.557   1.798   3.587  0.2320  0.1942 -0.0550
 2144CLF     CX 2144   1.047   4.961   4.283 -0.0239  0.2929  0.0610
 2145CLF     CX 2145   6.264   2.504   5.183  0.1469  0.0366 -0.1348
 2146CLF     CX 2146   5.178   6.023   6.924  0.2159  0.0160 -0.4452
 2147CLF     CX 2147   1.949   4.571   0.768  0.0603  0.0311  0.1258
 2148CLF     CX 2148   6.690   6.388   0.416 -0.1912 -0.1024  0.0952
 2149CLF     CX 2149   4.435   3.433   0.362  0.0348  0.1533 -0.1740
 2150CLF     CX 2150   6.287   3.476   2.966  0.1874 -0.0259  0.1079
 2151CLF     CX 2151   3.119   0.419   4.624 -0.1187 -0.0957 -0.2943
 2152CLF     CX 2152   1.505   7.102   6.404 -0.3572 -0.0320  0.1579
 2153CLF     CX 2153   2.986   3.252   3.074  0.0143  0.2937  0.1258
 2154CLF     CX 2154   7.007   2.390   2.402  0.1593  0.0882  0.1279
 2155CLF     CX 2155   4.318   1.771   5.234 -0.1769  0.0045 -0.1063
 2156CLF     CX 2156   4.683   1.512   6.533 -0.0929  0.0858  0.1165
 2157CLF     CX 2157   0.652   0.940   3.508 -0.2815  0.1797  0.3630
 2158CLF     CX 2158   6.520   1.221   5.329 -0.1666  0.0144 -0.1605
 2159CLF     CX 2159   6.743   5.521   1.621 -0.1730 -0.0057 -0.0209
 2160CLF     CX 2160   1.010   2.540   6.563  0.0248  0.0324  0.1249
 2161CLF     CX 2161   5.886   4.846   5.749 -0.1323  0.0464 -0.2850
 2162CLF     CX 2162   1.991   4.531   7.038 -0.3573 -0.1177 -0.0364
 2163CLF     CX 2163   4.605   1.994   1.611 -0.0170  0.1591  0.2471
 2164CLF     CX 2164   2.319   4.266   0.495 -0.1236  0.1325 -0.0598
 2165CLF     CX 2165   1.061   3.520   4.633 -0.2310 -0.1611 -0.0127
 2166CLF     CX 2166   0.869   6.193   7.124  0.2953  0.1060  0.3598
 2167CLF     CX 2167   3.772   6.215   6.562 -0.1049  0.2560 -0.1581
 2168CLF     CX 2168   6.067   1.337   2.468  0.0270  0.0555 -0.0597
 2169CLF     CX 2169   4.883   6.149   5.497  0.0529 -0.1771  0.1645
 2170CLF     CX 2170   2.396   6.906   5.834  0.0245  0.4052 -0.1455
 2171CLF     CX 2171   1.894   2.715   6.143 -0.2006 -0.0557 -0.2484
 2172CLF     CX 2172   4.748   3.502   3.713  0.1677  0.0560 -0.0897
 2173CLF     CX 2173   4.364   2.161   0.077  0.1149  0.3081  0.2161
 2174CLF     CX 2174   6.699   0.464   1.336  0.0877 -0.0111 -0.0737
 2175CLF     CX 2175   2.363   4.490   4.730  0.4795  0.1809 -0.0049
 2176CLF     CX 2176   5.018   4.739   2.000  0.1834 -0.1551 -0.0186
 2177CLF     CX 2177   1.953   5.980   1.894 -0.0614 -0.0746 -0.1250
 2178CLF     CX 2178   2.722   0.559   2.546  0.0997 -0.1965 -0.1147
 2179CLF     CX 2179   2.349   2.150   2.868 -0.0566 -0.0806 -0.2261
 2180CLF     CX 2180   2.423   5.049   2.751  0.2729 -0.0444 -0.0783
 2181CLF     CX 2181   2.200   0.209   2.767  0.2145  0.0721 -0.0805
 2182CLF     CX 2182   3.877   6.007   0.098 -0.4423 -0.0180  0.0777
 2183CLF     CX 2183   4.739   1.774   6.937  0.1769 -0.0403 -0.1721
 2184CLF     CX 2184   6.748   3.911   6.741 -0.2675 -0.4027 -0.1617
 2185CLF     CX 2185   4.166   3.598   5.389  0.1814 -0.1985  0.2927
 2186CLF     CX 2186   1.367   2.653   6.272  0.0867  0.3363 -0.0409
 2187CLF     CX 2187   7.106   0.666   3.704  0.1200  0.2569  0.0620
 2188CLF     CX 2188   2.846   6.155   3.701 -0.2616 -0.1154 -0.0117
 2189CLF     CX 2189   5.382   5.439   3.931 -0.0703  0.3251  0.1889
 2190CLF     CX 2190   1.522   6.350   5.721  0.2435  0.0524 -0.0032
 2191CLF     CX 2191   3.153   3.855   4.055  0.3794 -0.2129 -0.4868
 2192CLF     CX 2192   2.445   4.636   0.851  0.0013 -0.1951 -0.1522
 2193CLF     CX 2193   6.238   2.817   1.271 -0.1245  0.1526 -0.1474
 2194CLF     CX 2194   5.635   0.062   3.954  0.0285  0.0470 -0.0505
 2195CLF     CX 2195   5.293   5.105   5.662 -0.2027 -0.0440  0.1655
 2196CLF     CX 2196   6.561   3.090   6.395  0.0255  0.1078 -0.0800
 2197CLF     CX 2197   6.010   2.908   4.554 -0.1029 -0.0300 -0.1078
 2198CLF     CX 2198   3.139   4.263   4.674 -0.0419 -0.2994  0.2428
 2199CLF     CX 2199   4.023   1.038   6.026 -0.1261  0.1268  0.1457
 2200CLF     CX 2200   4.499   0.906   4.533 -0.0424 -0.1817 -0.2461
 2201CLF     CX 2201   5.327   4.452   6.694  0.3830  0.1716  0.0615
 2202CLF     CX 2202   2.079   3.105   5.145  0.0311 -0.0276  0.2690
 2203CLF     CX 2203   1.177   5.156   2.866  0.0451  0.2641 -0.0166
 2204CLF     CX 2204   2.998   6.773   1.713  0.0596 -0.1035  0.0084
 2205CLF     CX 2205   1.048   2.487   5.573 -0.3093 -0.1975 -0.3276
 2206CLF     CX 2206   0.217   1.546   1.371  0.0018 -0.1779 -0.3920
 2207CLF     CX 2207   4.520   5.295   0.245  0.1745 -0.0822  0.1220
 2208CLF     CX 2208   5.720   2.557   4.402 -0.1061 -0.1888  0.2083
 2209CLF     CX 2209   0.019   3.860   6.293  0.2883 -0.0118 -0.1309
 2210CLF     CX 2210   1.352   5.975   0.049  0.2389 -0.1748  0.2667
 2211CLF     CX 2211   2.493   4.003   1.559 -0.0816  0.2845 -0.1694
 2212CLF     CX 2212   1.966   1.221   2.197  0.0300  0.0537  0.1595
 2213CLF     CX 2213   6.247   3.010   5.038 -0.1600 -0.1340  0.2065
 2214CLF     CX 2214   0.180   2.717   4.008 -0.0151 -0.0687 -0.1520
 2215CLF     CX 2215   3.588   5.050   2.158 -0.2338  0.1911  0.0590
 2216CLF     CX 2216   7.089   6.421   5.118  0.2688 -0.3925  0.3167
 2217CLF     CX 2217   6.924   2.116   6.302  0.1697 -0.1795  0.1457
 2218CLF     CX 2218   0.853   1.435   3.260 -0.2322  0.2716 -0.1546
 2219CLF     CX 2219   7.149   4.089   0.334 -0.1125 -0.1715 -0.1422
 2220CLF     CX 2220   2.767   2.539   0.597 -0.0061 -0.1672  0.0500
 2221CLF     CX 2221   7.121   1.631   1.806  0.0310  0.1261  0.1927
 2222CLF     CX 2222   0.322   1.033   2.864 -0.0089 -0.0894  0.1208
 2223CLF     CX 2223   6.481   0.737   5.371  0.0055  0.1167 -0.0795
 2224CLF     CX 2224   1.253   6.563   1.959 -0.1959 -0.1707  0.0539
 2225CLF     CX 2225   1.900   3.854   4.023  0.2391 -0.0187  0.0211
 2226CLF     CX 2226   7.111   4.651   2.709 -0.0303 -0.1249  0.0959
 2227CLF     CX 2227   5.510   2.027   0.441  0.3382  0.2129 -0.2394
 2228CLF     CX 2228   4.185   3.992   4.566 -0.0883  0.3317 -0.2278
 2229CLF     CX 2229   5.451   6.799   5.321 -0.2622 -0.1065  0.0012
 2230CLF     CX 2230   1.073   5.463   0.038 -0.1985  0.0302  0.2967
 2231CLF     CX 2231   2.220   4.249   3.805  0.2552  0.3191 -0.2253
 2232CLF     CX 2232   5.377   6.183   3.104  0.0442 -0.2931 -0.0929
 2233CLF     CX 2233   0.224   2.183   2.826  0.0940  0.0513  0.0182
 2234CLF     CX 2234   3.320   1.286   2.195 -0.1291  0.0797  0.2720
 2235CLF     CX 2235   6.959   1.947   1.416 -0.2880  0.1375  0.0542
 2236CLF     CX 2236   2.044   4.735   2.753  0.0823 -0.0659 -0.0342
 2237CLF     CX 2237   2.859   0.752   1.067 -0.0837 -0.0627  0.3800
 2238CLF     CX 2238   4.057   2.646   4.703 -0.4301 -0.0622  0.2839
 2239CLF     CX 2239   0.099   1.124   6.482  0.1935  0.2569 -0.1286
 2240CLF     CX 2240   4.416   6.649   2.009  0.2116 -0.0983 -0.0204
 2241CLF     CX 2241   6.803   3.303   6.944  0.0167  0.2022  0.0669
 2242CLF     CX 2242   4.903   0.803   4.792  0.1687  0.0865  0.2179
 2243CLF     CX 2243   6.408   7.139   5.812 -0.2825  0.1443  0.0357
 2244CLF     CX 2244   3.241   5.122   1.706 -0.1368 -0.0002 -0.0174
 2245CLF     CX 2245   3.433   3.803   4.543 -0.0634 -0.3615 -0.2456
 2246CLF     CX 2246   3.347   6.297   0.783 -0.2271  0.0028 -0.2556
 2247CLF     CX 2247   3.113   3.821   6.337 -0.1898  0.1764  0.2509
 2248CLF     CX 2248   3.512   0.691   3.302  0.0922  0.0036 -0.1276
 2249CLF     CX 2249   3.553   2.752   0.333 -0.0685  0.0601 -0.0505
 2250CLF     CX 2250   3.433   0.451   0.273 -0.0937 -0.2412  0.1767
 2251CLF     CX 2251   7.116   6.766   6.546  0.0902 -0.1382 -0.0466
 2252CLF     CX 2252   5.138   7.065   3.748 -0.2769 -0.0285  0.1623
 2253CLF     CX 2253   2.264   6.120   5.028 -0.3266 -0.2680  0.0479
 2254CLF     CX 2254   3.565   2.810   4.590 -0.1896 -0.2625 -0.2553
 2255CLF     CX 2255   6.111   1.820   6.250 -0.0155  0.1791 -0.4061
 2256CLF     CX 2256   6.512   0.313   6.319  0.0535 -0.2576  0.0305
 2257CLF     CX 2257   0.047   3.480   4.871 -0.0773 -0.0399 -0.2275
 2258CLF     CX 2258   6.257   0.791   0.349  0.0056 -0.0943 -0.3106
 2259CLF     CX 2259   3.814   2.241   3.176 -0.0432 -0.0768  0.0033
 2260CLF     CX 2260   0.206   6.359   3.010  0.2700  0.2864 -0.0639
 2261CLF     CX 2261   2.772   4.528   4.495 -0.2278 -0.0828  0.1359
 2262CLF     CX 2262   1.404   0.183   5.395 -0.0528 -0.4757  0.0165
 2263CLF     CX 2263   6.000   2.437   5.724  0.1513  0.0994 -0.0533
 2264CLF     CX 2264   5.978   3.805   1.550 -0.0843  0.0156 -0.2154
 2265CLF     CX 2265   1.155   4.606   1.145 -0.1005 -0.0895  0.2610
 2266CLF     CX 2266   3.214   3.241   6.193  0.1635 -0.3218 -0.1563
 2267CLF     CX 2267   0.874   4.090   6.841  0.2068 -0.3381  0.1716
 2268CLF     CX 2268   3.289   4.052   0.828 -0.2282  0.0501  0.1310
 2269CLF     CX 2269   0.177   1.546   4.541 -0.0890 -0.0176 -0.0457
 2270CLF     CX 2270   1.738   3.805   1.986  0.0063 -0.0158 -0.1729
 2271CLF     CX 2271   0.048   1.950   4.993 -0.1148  0.4587  0.1244
 2272CLF     CX 2272   0.273   1.013   3.944 -0.1196  0.3739 -0.0383
 2273CLF     CX 2273   4.186   2.226   5.440  0.1804 -0.1377  0.1809
 2274CLF     CX 2274   0.195   6.085   6.190  0.0223  0.0216 -0.1309
 2275CLF     CX 2275   4.343   6.195   0.298 -0.1036 -0.0597  0.0033
 2276CLF     CX 2276   1.014   0.149   6.299  0.0087  0.2643 -0.2213
 2277CLF     CX 2277   1.512   5.340   1.118 -0.3463 -0.2674 -0.0577
 2278CLF     CX 2278   5.146   1.931   2.875  0.0004  0.2567  0.1043
 2279CLF     CX 2279   1.837   0.358   2.235 -0.6423  0.0014 -0.3559
 2280CLF     CX 2280   3.050   5.547   2.667  0.0546 -0.0367 -0.3337
 2281CLF     CX 2281   3.545   4.877   0.673  0.0068  0.0258  0.0953
 2282CLF     CX 2282   2.024   6.903   5.028 -0.1981 -0.0968  0.1035
 2283CLF     CX 2283   5.940   2.822   3.438  0.2123  0.1094 -0.1985
 2284CLF     CX 2284   0.860   0.310   3.628  0.0832  0.3447  0.1151
 2285CLF     CX 2285   4.274   2.598   6.383 -0.0055  0.3426  0.4486
 2286CLF     CX 2286   1.538   0.477   6.666  0.2975 -0.1981  0.2588
 2287CLF     CX 2287   2.880   0.400   4.067 -0.4392 -0.0540  0.1716
 2288CLF     CX 2288   3.086   1.963   1.691  0.1980 -0.1416  0.1590
 2289CLF     CX 2289   4.756   5.652   5.020 -0.0428  0.1057 -0.0431
 2290CLF     CX 2290   3.722   6.797   5.138  0.1317  0.0157 -0.0722
 2291CLF     CX 2291   6.702   3.724   2.883 -0.2048 -0.1664  0.0659
 2292CLF     CX 2292   3.545   3.527   5.175  0.4637 -0.0642  0.2765
 2293CLF     CX 2293   4.019   0.218   5.107 -0.1246  0.0373 -0.2107
 2294CLF     CX 2294   1.729   5.079   1.844  0.1220 -0.0855 -0.0465
 2295CLF     CX 2295   1.112   4.465   2.606 -0.0387 -0.1656 -0.1634
 2296CLF     CX 2296   0.429   6.969   0.765  0.0557 -0.0464  0.1825
 2297CLF     CX 2297   0.377   1.548   6.212  0.3560 -0.0155 -0.4647
 2298CLF     CX 2298   4.573   4.277   5.974  0.0472  0.0139 -0.1102
 2299CLF     CX 2299   4.218   1.317   1.941  0.1209  0.1717 -0.0464
 2300CLF     CX 2300   2.509   3.118   3.041  0.2042 -0.0082 -0.0036
 2301CLF     CX 2301   6.326   1.417   2.969 -0.1755  0.3038  0.0123
 2302CLF     CX 2302   4.156   0.636   1.021 -0.2472 -0.0530  0.1711
 2303CLF     CX 2303   7.038   4.768   4.974  0.1231  0.0809 -0.0459
 2304CLF     CX 2304   6.239   5.250   5.017 -0.0068 -0.2994 -0.0213
 2305CLF     CX 2305   4.449   0.361   3.862  0.2082 -0.1314 -0.0552
 2306CLF     CX 2306   1.060   1.968   3.736  0.0779  0.0542  0.1178
 2307CLF     CX 2307   6.561   2.216   3.808 -0.0487 -0.2764  0.0314
 2308CLF     CX 2308   3.216   2.681   3.128  0.2083 -0.1947 -0.1675
 2309CLF     CX 2309   0.311   1.576   4.083  0.1894  0.1397 -0.1805
 2310CLF     CX 2310   2.685   3.204   4.896  0.1438  0.1591 -0.0946
 2311CLF     CX 2311   7.075   6.122   0.175  0.3461  0.0107 -0.1156
 2312CLF     CX 2312   2.393   3.519   5.118  0.0283 -0.0436 -0.0002
 2313CLF     CX 2313   5.155   2.768   1.576  0.1363 -0.2111  0.1851
 2314CLF     CX 2314   3.927   2.265   7.010  0.2055  0.1272  0.0515
 2315CLF     CX 2315   5.887   3.749   6.301 -0.3445 -0.0954 -0.0028
 2316CLF     CX 2316   6.351   0.385   3.170 -0.0745  0.1700 -0.2694
 2317CLF     CX 2317   5.740   0.969   2.186 -0.0481 -0.3169 -0.1851
 2318CLF     CX 2318   4.989   4.059   6.401 -0.0579 -0.1212  0.1586
 2319CLF     CX 2319   3.414   5.330   1.173  0.1551 -0.1349  0.0394
 2320CLF     CX 2320   1.991   1.655   1.857 -0.1203  0.1010  0.3531
 2321CLF     CX 2321   4.705   1.204   1.879  0.4655 -0.2726 -0.0143
 2322CLF     CX 2322   6.395   2.201   4.634 -0.0800 -0.0469  0.1542
 2323CLF     CX 2323   6.650   6.767   5.557  0.0629  0.1281 -0.3907
 2324CLF     CX 2324   7.159   7.101   1.062 -0.2431  0.1161 -0.4536
 2325CLF     CX 2325   5.444   6.703   1.471 -0.1500 -0.2403 -0.0706
 2326CLF     CX 2326   4.808   4.558   6.961  0.1990  0.1958  0.2632
 2327CLF     CX 2327   4.122   6.706   3.257  0.2516  0.3151  0.0066
 2328CLF     CX 2328   4.461   5.478   0.831 -0.1617 -0.1430  0.0990
 2329CLF     CX 2329   2.432   1.268   4.313 -0.1858 -0.0877  0.2363
 2330CLF     CX 2330   3.172   4.123   1.329 -0.0933  0.1516  0.0637
 2331CLF     CX 2331   6.793   2.873   4.172 -0.1036 -0.1154  0.0850
 2332CLF     CX 2332   0.534   5.963   2.125  0.2122  0.1466  0.2074
 2333CLF     CX 2333   1.963   5.594   5.979  0.1590 -0.0361  0.0376
 2334CLF     CX 2334   0.870   3.026   6.422 -0.1376 -0.3094 -0.0949
 2335CLF     CX 2335   3.420   0.096   0.629  0.3517  0.1295  0.0367
 2336CLF     CX 2336   4.855   6.268   2.789 -0.0405  0.0699 -0.1187
 2337CLF     CX 2337   3.770   6.371   3.364  0.0243  0.1628 -0.2261
 2338CLF     CX 2338   3.711   3.334   4.661  0.1370  0.2057 -0.0054
 2339CLF     CX 2339   1.907   0.830   3.954  0.0674  0.1121 -0.0470
 2340CLF     CX 2340   2.259   0.895   6.048 -0.1661 -0.0197 -0.0533
 2341CLF     CX 2341   5.240   2.747   6.103 -0.0223 -0.3162 -0.0840
 2342CLF     CX 2342   1.134   4.203   5.944  0.0398  0.3379  0.0913
 2343CLF     CX 2343   3.912   3.298   1.275 -0.0628 -0.1554  0.1088
 2344CLF     CX 2344   5.149   0.700   1.158 -0.0456  0.1267  0.3345
 2345CLF     CX 2345   4.448   4.193   7.009 -0.3538 -0.0073  0.1015
 2346CLF     CX 2346   3.906   0.077   1.359 -0.1634  0.2922  0.1963
 2347CLF     CX 2347   5.024   0.017   7.153 -0.2838  0.2432  0.2909
 2348CLF     CX 2348   5.459   2.432   3.532  0.0150 -0.0426  0.1448
 2349CLF     CX 2349   2.777   0.775   4.974  0.1593 -0.0963  0.1169
 2350CLF     CX 2350   5.060   6.181   4.004 -0.0613 -0.0968 -0.1058
 2351CLF     CX 2351   6.880   5.119   1.289 -0.0347  0.0999 -0.0647
 2352CLF     CX 2352   4.269   3.508   6.927  0.0039  0.1400 -0.0385
 2353CLF     CX 2353   5.469   4.585   1.875 -0.0408 -0.0989 -0.0281
 2354CLF     CX 2354   5.392   0.765   4.505  0.1258  0.1451 -0.2714
 2355CLF     CX 2355   2.893   2.532   1.139  0.3011  0.0628  0.0936
 2356CLF     CX 2356   6.486   2.626   0.786  0.3472  0.2366 -0.2445
 2357CLF     CX 2357   3.355   1.180   3.506  0.0798 -0.2083  0.0326
 2358CLF     CX 2358   3.577   3.690   3.996 -0.1147 -0.1246  0.0527
 2359CLF     CX 2359   1.763   4.894   0.211  0.2528 -0.1842  0.1261
 2360CLF     CX 2360   1.850   7.082   2.616  0.1790 -0.0019 -0.0118
 2361CLF     CX 2361   5.400   3.644   0.954  0.0110 -0.1394 -0.2690
 2362CLF     CX 2362   0.359   3.922   5.659 -0.0476  0.1926  0.2206
 2363CLF     CX 2363   4.424   4.775   0.157 -0.2582 -0.2492 -0.2291
 2364CLF     CX 2364   7.053   6.980   1.767  0.0536 -0.1918 -0.0794
 2365CLF     CX 2365   0.878   1.216   4.170  0.1932  0.3203 -0.2094
 2366CLF     CX 2366   2.705   2.342   5.025 -0.3047 -0.2343 -0.0093
 2367CLF     CX 2367   6.500   1.956   1.663 -0.0360  0.0224  0.1310
 2368CLF     CX 2368   6.125   4.698   1.184  0.3699 -0.1140 -0.1159
 2369CLF     CX 2369   2.925   6.069   6.223  0.2066 -0.2952 -0.1260
 2370CLF     CX 2370   2.611   5.985   4.546  0.1106 -0.1093  0.2118
 2371CLF     CX 2371   6.800   3.316   5.026  0.1241  0.2073  0.0738
 2372CLF     CX 2372   3.312   6.017   5.025 -0.2008  0.2924 -0.1319
 2373CLF     CX 2373   3.402   1.789   2.144  0.2627 -0.2013  0.1688
 2374CLF     CX 2374   0.502   1.787   6.931  0.1354  0.1886  0.0821
 2375CLF     CX 2375   0.143   0.182   2.454  0.1004 -0.0155 -0.0202
 2376CLF     CX 2376   5.817   7.115   5.218  0.3292 -0.1655 -0.4046
 2377CLF     CX 2377   6.107   5.515   3.915  0.1675  0.1979 -0.2083
 2378CLF     CX 2378   5.909   4.272   0.360 -0.3606  0.0893  0.2307
 2379CLF     CX 2379   6.471   5.303   0.200  0.0797  0.0185  0.0211
 2380CLF     CX 2380   4.977   3.042   4.093 -0.0433 -0.0954 -0.2591
 2381CLF     CX 2381   6.680   5.723   7.054  0.1342 -0.1158  0.2862
 2382CLF     CX 2382   4.033   6.133   4.457 -0.1145  0.2725  0.1654
 2383CLF     CX 2383   4.473   5.941   6.101  0.0770 -0.2029  0.0305
 2384CLF     CX 2384   5.701   1.245   1.712 -0.0113 -0.0298 -0.2879
 2385CLF     CX 2385   3.955   1.525   0.684  0.2346  0.3147  0.0110
 2386CLF     CX 2386   6.031   5.935   4.152 -0.0946  0.0027  0.2887
 2387CLF     CX 2387   5.843   6.280   2.715  0.0478 -0.0807 -0.0817
 2388CLF     CX 2388   5.566   6.364   1.789 -0.1497 -0.0611  0.0155
 2389CLF     CX 2389   1.263   2.815   0.207 -0.3396 -0.2718 -0.2509
 2390CLF     CX 2390   6.444   2.616   2.273  0.2855 -0.1390 -0.2879
 2391CLF     CX 2391   4.655   4.778   4.639  0.0495 -0.2248  0.0798
 2392CLF     CX 2392   6.648   1.803   5.020  0.0475 -0.0691  0.1787
 2393CLF     CX 2393   0.372   0.509   1.174  0.2444  0.0516 -0.0339
 2394CLF     CX 2394   1.628   4.140   3.343 -0.0648  0.0559  0.3886
 2395CLF     CX 2395   0.161   3.896   5.177 -0.2055  0.3936 -0.1433
 2396CLF     CX 2396   5.301   0.256   1.349  0.4488 -0.1674  0.3101
 2397CLF     CX 2397   7.101   1.144   0.776 -0.1240  0.1181 -0.0321
 2398CLF     CX 2398   6.857   6.399   2.547  0.0427  0.1241 -0.2547
 2399CLF     CX 2399   0.315   1.430   3.224 -0.4168  0.3625  0.1455
 2400CLF     CX 2400   4.374   4.561   6.605  0.0065  0.1694 -0.1821
 2401CLF     CX 2401   5.260   6.709   0.596  0.2065  0.3091  0.2015
 2402CLF     CX 2402   5.957   1.735   0.388  0.1438  0.1925 -0.4039
 2403CLF     CX 2403   0.575   6.348   5.781 -0.2523  0.0528 -0.1133
 2404CLF     CX 2404   6.549   2.566   3.355 -0.2419  0.4425  0.1644
 2405CLF     CX 2405   6.994   4.914   6.086  0.0623 -0.2099  0.2172
 2406CLF     CX 2406   6.167   6.823   4.916  0.5149  0.0802 -0.2662
 2407CLF     CX 2407   1.250   6.018   6.255 -0.0626 -0.1269 -0.1125
 2408CLF     CX 2408   1.476   6.845   4.914 -0.3271  0.2266  0.1093
 2409CLF     CX 2409   1.926   1.183   6.306 -0.0828  0.2905 -0.1955
 2410CLF     CX 2410   0.743   1.662   4.387  0.1603  0.0860  0.1163
 2411CLF     CX 2411   5.928   5.439   1.419  0.0287  0.1157  0.1662
 2412CLF     CX 2412   1.951   1.721   6.196 -0.1449  0.1778  0.1737
 2413CLF     CX 2413   5.061   1.416   2.443 -0.4745 -0.1796 -0.1810
 2414CLF     CX 2414   5.737   1.665   4.683 -0.3829  0.0075  0.0872
 2415CLF     CX 2415   4.137   6.566   3.861 -0.0721  0.1192 -0.0945
 2416CLF     CX 2416   5.510   3.531   4.483 -0.1054 -0.0018 -0.0970
 2417CLF     CX 2417   0.528   1.595   0.902 -0.0009 -0.2354  0.0972
 2418CLF     CX 2418   0.469   6.588   4.198 -0.0745  0.0771  0.1652
 2419CLF     CX 2419   6.503   5.814   6.022  0.2181 -0.3695 -0.1257
 2420CLF     CX 2420   6.134   1.292   6.018 -0.3249  0.0886 -0.1823
 2421CLF     CX 2421   2.134   0.554   3.342  0.0941 -0.2585  0.1039
 2422CLF     CX 2422   6.454   3.203   0.869 -0.0515 -0.1614  0.2178
 2423CLF     CX 2423   0.521   6.225   5.322  0.1410 -0.1675 -0.0590
 2424CLF     CX 2424   1.703   5.364   0.495 -0.1402  0.2604 -0.0269
 2425CLF     CX 2425   1.872   2.345   3.026  0.2499  0.0357  0.0436
 2426CLF     CX 2426   2.232   3.435   2.742 -0.1611  0.0675  0.3778
 2427CLF     CX 2427   1.157   3.869   0.227 -0.1379 -0.1447  0.0210
 2428CLF     CX 2428   2.133   6.412   5.849 -0.0846 -0.0107 -0.1983
 2429CLF     CX 2429   4.089   0.900   2.493 -0.2094 -0.1635  0.2084
 2430CLF     CX 2430   4.873   6.754   5.649 -0.0670 -0.0572 -0.2016
 2431CLF     CX 2431   2.764   5.285   5.365 -0.1258 -0.2282  0.1226
 2432CLF     CX 2432   4.809   6.723   2.591  0.0784  0.0718 -0.0213
 2433CLF     CX 2433   6.699   2.847   1.745  0.0943 -0.2123  0.0116
 2434CLF     CX 2434   4.801   2.840   1.990 -0.0883 -0.0901  0.3777
 2435CLF     CX 2435   5.352   5.575   6.785  0.1909 -0.2132 -0.0449
 2436CLF     CX 2436   3.460   6.919   2.536 -0.3348  0.0608  0.2281
 2437CLF     CX 2437   1.366   3.219   3.767 -0.3819 -0.3701 -0.2168
 2438CLF     CX 2438   0.637   4.704   0.624  0.0399  0.2402  0.0055
 2439CLF     CX 2439   1.143   3.836   0.715 -0.1223  0.1225 -0.0437
 2440CLF     CX 2440   0.579   3.674   4.784  0.1786  0.0402  0.1890
 2441CLF     CX 2441   0.550   3.716   0.090  0.0240  0.0902  0.5248
 2442CLF     CX 2442   3.671   1.473   6.068 -0.2527 -0.3681 -0.1513
 2443CLF     CX 2443   2.188   1.397   0.043  0.2198 -0.0830 -0.0147
 2444CLF     CX 2444   4.398   4.905   3.846  0.2532 -0.0044 -0.0876
 2445CLF     CX 2445   5.048   0.987   5.226  0.2533 -0.1535  0.1102
 2446CLF     CX 2446   5.272   5.072   5.068  0.0908  0.1630 -0.1723
 2447CLF     CX 2447   1.776   6.413   3.399 -0.0462 -0.1428 -0.0175
 2448CLF     CX 2448   5.614   1.976   6.239  0.3286  0.0438  0.2718
 2449CLF     CX 2449   5.236   6.488   2.489  0.1089 -0.0767 -0.0041
 2450CLF     CX 2450   1.570   6.130   1.524  0.3725  0.1329 -0.0837
 2451CLF     CX 2451   6.202   4.216   0.942  0.0649  0.1204 -0.1104
 2452CLF     CX 2452   4.081   6.746   0.617 -0.2564  0.0479 -0.1075
 2453CLF     CX 2453   5.605   7.066   3.396 -0.1551  0.0120 -0.2580
 2454CLF     CX 2454   3.460   2.849   1.294  0.1430  0.0557 -0.3389
 2455CLF     CX 2455   0.504   2.729   6.515  0.4004  0.1915  0.3043
 2456CLF     CX 2456   4.152   4.755   1.365  0.1755  0.2924 -0.3186
 2457CLF     CX 2457   2.570   6.442   2.752 -0.0182  0.0174 -0.2433
 2458CLF     CX 2458   0.812   5.862   5.631  0.4817 -0.0159 -0.2156
 2459CLF     CX 2459   4.708   6.104   1.230 -0.2046 -0.2128 -0.1184
 2460CLF     CX 2460   2.564   0.531   3.058 -0.0877 -0.1739 -0.2707
 2461CLF     CX 2461   6.220   1.655   0.781 -0.0218 -0.0991  0.0879
 2462CLF     CX 2462   7.112   2.031   3.329 -0.2076  0.0704 -0.1332
 2463CLF     CX 2463   5.195   3.511   2.245 -0.2508  0.0266  0.1585
 2464CLF     CX 2464   6.854   0.876   5.070 -0.4147  0.0257 -0.0589
 2465CLF     CX 2465   1.618   4.369   0.212  0.4618  0.0583 -0.0158
 2466CLF     CX 2466   2.648   5.009   6.161  0.1029 -0.0389 -0.0413
 2467CLF     CX 2467   4.858   0.337   0.407  0.1434  0.0753  0.0369
 2468CLF     CX 2468   5.218   3.278   1.816  0.2353  0.0116  0.0662
 2469CLF     CX 2469   3.080   1.370   4.305  0.0254  0.0787 -0.0918
 2470CLF     CX 2470   2.907   5.696   5.875  0.0628  0.0250  0.1719
 2471CLF     CX 2471   1.809   4.209   2.406  0.1145 -0.1034  0.2118
 2472CLF     CX 2472   3.867   5.595   2.784 -0.2741  0.0887  0.0607
 2473CLF     CX 2473   1.989   2.889   6.641 -0.1196 -0.2462 -0.2603
 2474CLF     CX 2474   6.309   3.461   6.053 -0.0457 -0.3398  0.0414
 2475CLF     CX 2475   0.227   5.862   3.283  0.0083  0.0388 -0.0486
 2476CLF     CX 2476   0.941   5.623   6.300 -0.0542 -0.1745  0.0797
 2477CLF     CX 2477   4.345   3.005   0.066  0.0134 -0.0664  0.0314
 2478CLF     CX 2478   3.563   5.342   2.529  0.2447  0.0727 -0.0735
 2479CLF     CX 2479   2.379   5.952   3.645  0.3759 -0.0137  0.0764
 2480CLF     CX 2480   0.985   2.115   0.470 -0.0401  0.1014 -0.0237
 2481CLF     CX 2481   4.050   3.451   6.428  0.1268 -0.0178  0.1118
 2482CLF     CX 2482   1.189   2.619   3.625  0.0832 -0.0079 -0.3093
 2483CLF     CX 2483   3.467   2.197   5.441  0.0213  0.1706  0.0069
 2484CLF     CX 2484   0.628   2.836   7.010 -0.1447  0.0030 -0.1656
 2485CLF     CX 2485   4.748   1.938   3.240 -0.0276 -0.3786  0.0447
 2486CLF     CX 2486   1.607   0.951   4.539 -0.1285 -0.1022  0.1244
 2487CLF     CX 2487   7.074   4.543   2.190  0.2080 -0.1426 -0.1315
 2488CLF     CX 2488   0.884   2.986   5.525  0.1268 -0.2535 -0.1622
 2489CLF     CX 2489   3.560   3.591   1.760 -0.0604  0.2396  0.2976
 2490CLF     CX 2490   3.219   4.722   2.314 -0.0972  0.2486  0.0424
 2491CLF     CX 2491   4.517   4.622   5.141  0.1472  0.2383 -0.3893
 2492CLF     CX 2492   5.127   0.402   1.822 -0.2373 -0.3600  0.2466
 2493CLF     CX 2493   2.673   0.756   4.475 -0.1306  0.1450  0.0022
 2494CLF     CX 2494   0.653   0.133   3.051 -0.0470 -0.1385  0.0342
 2495CLF     CX 2495   3.044   4.499   0.382 -0.2871  0.2501 -0.1052
 2496CLF     CX 2496   4.508   1.780   0.500  0.0568 -0.1088 -0.2939
 2497CLF     CX 2497   1.754   4.769   2.261 -0.1593  0.0145  0.1722
 2498CLF     CX 2498   2.928   7.147   3.501  0.0370 -0.2942  0.0973
 2499CLF     CX 2499   1.148   4.098   1.198  0.2038  0.2877  0.1562
 2500CLF     CX 2500   5.628   2.466   1.781  0.0383 -0.0550  0.2656
 2501CLF     CX 2501   6.859   0.039   6.567  0.0117 -0.2395 -0.0292
 2502CLF     CX 2502   4.563   4.367   3.160  0.2597 -0.0650 -0.3458
 2503CLF     CX 2503   0.182   0.361   2.918 -0.0204 -0.1710 -0.0754
 2504CLF     CX 2504   4.873   4.862   2.563 -0.0606  0.0738 -0.1006
 2505CLF     CX 2505   3.174   2.770   2.406  0.0025 -0.0801  0.2447
 2506CLF     CX 2506   1.247   1.340   4.603  0.0416  0.0654  0.2336
 2507CLF     CX 2507   0.079   3.023   3.390 -0.1526  0.1254  0.1485
 2508CLF     CX 2508   1.024   4.709   3.464 -0.2540 -0.0410  0.0912
 2509CLF     CX 2509   5.171   1.769   4.976  0.2174 -0.1629  0.2441
 2510CLF     CX 2510   1.595   6.137   6.688  0.1542 -0.2252 -0.2729
 2511CLF     CX 2511   6.297   6.494   6.865  0.2091 -0.2354  0.0961
 2512CLF     CX 2512   6.740   1.579   3.298 -0.0737  0.1388  0.1417
 2513CLF     CX 2513   5.387   0.509   0.103 -0.1076  0.2500 -0.0453
 2514CLF     CX 2514   4.076   2.007   6.590  0.1099 -0.0154 -0.2123
 2515CLF     CX 2515   0.297   3.409   6.322  0.1380 -0.0910 -0.0866
 2516CLF     CX 2516   2.306   1.650   5.764 -0.2216 -0.0660  0.0919
 2517CLF     CX 2517   2.484   2.583   6.431  0.0069  0.0419  0.2086
 2518CLF     CX 2518   1.142   5.729   2.871  0.1166 -0.2956 -0.1143
 2519CLF     CX 2519   3.068   5.196   5.946  0.1403 -0.1760 -0.0651
 2520CLF     CX 2520   1.358   6.795   5.425  0.0290  0.0481 -0.3692
 2521CLF     CX 2521   3.504   6.472   6.950 -0.2175 -0.0375  0.3137
 2522CLF     CX 2522   3.425   5.786   5.713 -0.0944 -0.3224  0.0771
 2523CLF     CX 2523   6.855   5.665   3.335  0.3546  0.0740  0.2340
 2524CLF     CX 2524   0.510   3.765   3.273 -0.0145  0.0792  0.2295
 2525CLF     CX 2525   1.560   1.299   0.368 -0.0647  0.5301  0.0278
 2526CLF     CX 2526   0.954   6.427   3.393  0.1644  0.2530 -0.0751
 2527CLF     CX 2527   1.028   6.280   6.608 -0.1660 -0.0878 -0.0754
 2528CLF     CX 2528   4.346   6.738   5.716  0.1083  0.5196 -0.0706
 2529CLF     CX 2529   5.652   3.646   5.664  0.1145  0.1742 -0.2640
 2530CLF     CX 2530   1.275   6.759   0.770  0.0091 -0.2030  0.1984
 2531CLF     CX 2531   3.053   2.381   3.670 -0.1302  0.4930 -0.0537
 2532CLF     CX 2532   6.295   5.115   5.521 -0.0595 -0.0821  0.0262
 2533CLF     CX 2533   5.401   6.893   1.964  0.0503 -0.4053  0.0677
 2534CLF     CX 2534   5.148   5.697   2.170  0.2298 -0.2167  0.1858
 2535CLF     CX 2535   0.705   6.006   3.225 -0.2972  0.2150  0.2127
 2536CLF     CX 2536   1.273   3.729   6.885  0.3217  0.0647 -0.1249
 2537CLF     CX 2537   6.545   4.203   4.605 -0.1832  0.0129  0.0230
 2538CLF     CX 2538   6.852   3.973   3.442 -0.0072 -0.2553 -0.3158
 2539CLF     CX 2539   4.887   0.852   0.648  0.2221 -0.2703 -0.0157
 2540CLF     CX 2540   3.361   2.296   6.416 -0.0254 -0.0025 -0.0246
 2541CLF     CX 2541   4.385   1.470   4.303  0.2871 -0.1288 -0.0805
 2542CLF     CX 2542   5.331   6.565   3.662 -0.1301 -0.1348  0.0995
 2543CLF     CX 2543   3.654   1.661   0.246 -0.0632  0.1028  0.2162
 2544CLF     CX 2544   2.096   1.112   1.604 -0.2416  0.0309 -0.2045
 2545CLF     CX 2545   6.427   5.196   3.621 -0.0187 -0.0085  0.2375
 2546CLF     CX 2546   3.183   2.817   4.059  0.4675  0.2616  0.0816
 2547CLF     CX 2547   2.101   3.418   3.241  0.2467  0.0869 -0.1735
 2548CLF     CX 2548   1.249   0.029   4.663  0.1067  0.1356 -0.0714
 2549CLF     CX 2549   1.220   2.576   1.554 -0.0058 -0.4002 -0.0250
 2550CLF     CX 2550   5.567   5.108   6.532  0.2054  0.3149  0.1382
 2551CLF     CX 2551   0.341   5.169   0.543  0.1605 -0.1893 -0.0017
 2552CLF     CX 2552   0.910   3.455   6.010  0.1959  0.0265 -0.0271
 2553CLF     CX 2553   6.539   0.699   6.732 -0.2298  0.2644  0.0025
 2554CLF     CX 2554   4.581   4.000   3.980  0.1955  0.2009  0.0712
 2555CLF     CX 2555   0.955   5.821   6.826  0.1097 -0.0256 -0.0032
 2556CLF     CX 2556   2.992   5.143   0.897  0.1215  0.0305  0.0911
 2557CLF     CX 2557   2.411   7.083   0.171 -0.0959  0.1271 -0.0487
 2558CLF     CX 2558   5.020   6.956   4.676 -0.1098  0.2207 -0.4002
 2559CLF     CX 2559   7.036   4.365   0.958 -0.1189  0.1392  0.0899
 2560CLF     CX 2560   6.332   5.679   1.256  0.1543  0.3586  0.0059
 2561CLF     CX 2561   4.028   4.911   6.829 -0.2487 -0.1060 -0.0827
 2562CLF     CX 2562   2.285   4.132   2.090 -0.4159 -0.2211 -0.0251
 2563CLF     CX 2563   4.750   3.784   6.722 -0.4955 -0.1068 -0.0045
 2564CLF     CX 2564   0.222   6.119   4.871 -0.0394  0.1850  0.2182
 2565CLF     CX 2565   1.787   1.935   2.601 -0.1497  0.0224 -0.1685
 2566CLF     CX 2566   1.357   7.110   6.967  0.3011  0.3091 -0.1962
 2567CLF     CX 2567   4.832   3.075   0.069 -0.0844  0.1930  0.0961
 2568CLF     CX 2568   0.644   0.570   4.130 -0.0799 -0.1462 -0.1523
 2569CLF     CX 2569   7.130   6.344   6.877  0.0590  0.0623 -0.0035
 2570CLF     CX 2570   3.414   2.030   6.858  0.0300 -0.1866  0.2742
 2571CLF     CX 2571   3.448   1.025   1.683  0.0819  0.0252 -0.1998
 2572CLF     CX 2572   3.279   1.361   0.542  0.1667  0.0677 -0.1517
 2573CLF     CX 2573   3.344   2.487   4.980 -0.2941  0.0866  0.0467
 2574CLF     CX 2574   1.315   5.157   0.282 -0.0542  0.2802  0.3577
 2575CLF     CX 2575   5.865   0.494   0.445  0.1128  0.0085 -0.2086
 2576CLF     CX 2576   5.712   3.800   4.059  0.0247 -0.0510 -0.0138
 2577CLF     CX 2577   4.489   2.334   3.644 -0.1058 -0.1855  0.3592
 2578CLF     CX 2578   5.483   4.281   5.016  0.1686 -0.1095 -0.4147
 2579CLF     CX 2579   7.062   3.825   3.917  0.0812 -0.1995  0.2780
 2580CLF     CX 2580   2.207   3.351   5.681  0.3753  0.1226  0.3043
 2581CLF     CX 2581   5.674   4.171   6.368  0.0495  0.1363 -0.0047
 2582CLF     CX 2582   0.075   0.658   5.456  0.5416 -0.0674  0.2952
 2583CLF     CX 2583   1.668   2.993   5.725  0.0625 -0.0834 -0.0385
 2584CLF     CX 2584   3.012   5.633   1.333  0.1222 -0.3748 -0.1709
 2585CLF     CX 2585   5.930   2.076   4.433 -0.0289 -0.1720 -0.0559
 2586CLF     CX 2586   6.921   3.407   0.925  0.1251 -0.2956 -0.1862
 2587CLF     CX 2587   5.429   0.661   6.754  0.1110  0.3335  0.0477
 2588CLF     CX 2588   4.263   0.016   3.421 -0.1504 -0.1449  0.2085
 2589CLF     CX 2589   1.460   0.826   0.134  0.2600  0.3111 -0.0601
 2590CLF     CX 2590   6.914   0.952   1.982  0.1195 -0.1487  0.4227
 2591CLF     CX 2591   0.103   6.094   1.331 -0.0454  0.2146 -0.1775
 2592CLF     CX 2592   1.826   7.008   0.039  0.1202  0.0032 -0.1095
 2593CLF     CX 2593   0.624   3.976   6.083 -0.2282 -0.1418  0.3102
 2594CLF     CX 2594   6.270   0.442   1.994  0.3242  0.2051 -0.1107
 2595CLF     CX 2595   6.277   2.119   1.139 -0.0509  0.0727  0.1458
 2596CLF     CX 2596   2.275   1.975   0.072  0.2414  0.0305  0.3906
 2597CLF     CX 2597   6.652   3.060   5.586 -0.1850  0.0387 -0.2436
 2598CLF     CX 2598   0.897   5.425   5.224 -0.2030 -0.2308  0.4049
 2599CLF     CX 2599   3.997   0.045   2.398  0.1920 -0.1054 -0.0010
 2600CLF     CX 2600   3.153   2.079   0.431  0.2759  0.1195 -0.2200
 2601CLF     CX 2601   0.105   4.198   2.515  0.2186  0.3782  0.1439
 2602CLF     CX 2602   1.618   4.475   2.853  0.1737  0.3037 -0.3709
 2603CLF     CX 2603   6.956   2.669   3.727  0.0086 -0.0124  0.0451
 2604CLF     CX 2604   4.546   1.906   4.696 -0.0491 -0.0416 -0.1897
 2605CLF     CX 2605   2.158   3.705   0.863  0.0077 -0.0221  0.2560
 2606CLF     CX 2606   3.502   3.783   5.840  0.3261  0.0227 -0.1593
 2607CLF     CX 2607   0.543   6.295   1.141 -0.3907  0.1237  0.0154
 2608CLF     CX 2608   2.045   1.419   2.637  0.0935 -0.2922 -0.1412
 2609CLF     CX 2609   0.032   6.972   5.175 -0.1355  0.3445  0.0744
 2610CLF     CX 2610   0.351   4.565   1.920  0.0501 -0.0745 -0.1927
 2611CLF     CX 2611   6.752   5.629   1.042  0.2073 -0.1075  0.0433
 2612CLF     CX 2612   5.771   2.738   6.778  0.0984 -0.1970  0.3263
 2613CLF     CX 2613   5.843   2.817   5.298  0.0782  0.0552 -0.0085
 2614CLF     CX 2614   6.473   5.399   4.241  0.0302 -0.1073 -0.3564
 2615CLF     CX 2615   3.726   5.980   5.262 -0.1224  0.2076  0.0734
 2616CLF     CX 2616   3.285   6.240   5.927  0.0646  0.0495  0.1495
 2617CLF     CX 2617   2.302   2.353   0.492 -0.0586 -0.1040  0.0419
 2618CLF     CX 2618   0.432   4.363   4.845 -0.1333 -0.0802  0.2300
 2619CLF     CX 2619   2.460   4.554   6.097  0.1598  0.2015 -0.0050
 2620CLF     CX 2620   2.379   0.686   0.850 -0.0520 -0.2645 -0.2941
 2621CLF     CX 2621   0.723   5.396   2.945  0.1587 -0.0871  0.0920
 2622CLF     CX 2622   5.893   6.413   5.194 -0.1597  0.0560  0.0428
 2623CLF     CX 2623   5.305   6.154   1.217  0.2415 -0.0448  0.1092
 2624CLF     CX 2624   2.063   1.046   3.403 -0.2328 -0.0792  0.1953
 2625CLF     CX 2625   2.784   4.131   0.703  0.0214  0.1741 -0.1105
 2626CLF     CX 2626   2.657   0.175   5.946  0.2088 -0.0806 -0.1369
 2627CLF     CX 2627   1.851   1.102   5.341  0.0427 -0.0849  0.0954
 2628CLF     CX 2628   2.010   6.967   2.135 -0.1750 -0.3538 -0.0827
 2629CLF     CX 2629   0.384   4.436   0.930  0.0594 -0.1552  0.1437
 2630CLF     CX 2630   2.323   4.862   1.395 -0.1934  0.0410  0.0356
 2631CLF     CX 2631   5.715   2.870   6.230  0.0376  0.5013  0.1179
 2632CLF     CX 2632   0.062   6.728   3.860  0.3330 -0.2110 -0.0436
 2633CLF     CX 2633   1.266   3.782   6.161  0.1424 -0.0393  0.0451
 2634CLF     CX 2634   3.553   5.433   0.441 -0.1248 -0.1626  0.1489
 2635CLF     CX 2635   1.405   4.002   2.859 -0.1326 -0.1557  0.1029
 2636CLF     CX 2636   6.192   3.323   2.426  0.3411 -0.3393 -0.0229
 2637CLF     CX 2637   4.334   1.829   2.904 -0.0673  0.0701  0.0517
 2638CLF     CX 2638   5.475   4.810   0.500  0.4929  0.2642  0.0658
 2639CLF     CX 2639   6.560   3.584   0.608 -0.0176  0.1591 -0.0816
 2640CLF     CX 2640   0.028   2.402   6.601  0.2048  0.2972  0.5932
 2641CLF     CX 2641   6.153   2.422   4.140 -0.2232 -0.2197 -0.1228
 2642CLF     CX 2642   5.048   1.625   6.028 -0.0930  0.0633  0.0062
 2643CLF     CX 2643   4.496   6.146   4.671  0.0422 -0.3888 -0.0222
 2644CLF     CX 2644   3.116   4.950   5.408  0.0422  0.0462 -0.2143
 2645CLF     CX 2645   2.174   5.016   0.458 -0.3013  0.0956 -0.0248
 2646CLF     CX 2646   2.589   2.448   5.933  0.2547 -0.1803  0.0196
 2647CLF     CX 2647   5.517   3.083   4.324  0.0613 -0.2017  0.0316
 2648CLF     CX 2648   4.848   0.611   4.275 -0.0174  0.1407  0.1178
 2649CLF     CX 2649   1.446   2.113   0.084 -0.0772  0.1195 -0.2401
 2650CLF     CX 2650   2.466   5.055   7.151 -0.0503  0.0253 -0.0370
 2651CLF     CX 2651   6.388   0.272   0.289 -0.1555  0.4287  0.1358
 2652CLF     CX 2652   3.648   4.914   1.302 -0.1589  0.1237 -0.2141
 2653CLF     CX 2653   0.749   6.017   2.693 -0.2231 -0.1369  0.2917
 2654CLF     CX 2654   5.242   6.466   5.770  0.5398  0.0221  0.3127
 2655CLF     CX 2655   6.284   3.975   0.469 -0.0760 -0.2351 -0.0727
 2656CLF     CX 2656   6.716   2.185   0.170 -0.0335  0.3505 -0.2444
 2657CLF     CX 2657   6.276   2.706   3.770 -0.2486 -0.0961 -0.1725
 2658CLF     CX 2658   3.719   2.739   3.096  0.1308 -0.1549  0.0863
 2659CLF     CX 2659   0.601   0.537   5.087 -0.2781  0.2351 -0.1018
 2660CLF     CX 2660   6.839   1.743   6.622 -0.2873  0.2217 -0.0941
 2661CLF     CX 2661   1.361   5.318   4.247  0.0158  0.0875  0.0331
 2662CLF     CX 2662   3.241   4.485   3.459 -0.0046 -0.0398  0.0418
 2663CLF     CX 2663   6.018   3.439   4.827 -0.0857  0.1539  0.2580
 2664CLF     CX 2664   6.869   1.961   2.115  0.2150  0.1584  0.0857
 2665CLF     CX 2665   6.756   3.075   3.144  0.1274  0.1334  0.0626
 2666CLF     CX 2666   1.208   2.918   5.871  0.3717 -0.0510 -0.3526
 2667CLF     CX 2667   5.250   3.149   1.272  0.0690 -0.3353 -0.1589
 2668CLF     CX 2668   6.120   5.105   4.370 -0.1078  0.0319  0.3287
 2669CLF     CX 2669   5.951   3.325   5.388  0.1843 -0.0877 -0.1030
 2670CLF     CX 2670   3.677   4.566   2.602 -0.1493  0.0377 -0.1896
 2671CLF     CX 2671   1.681   5.427   3.146  0.2665  0.3146  0.0136
 2672CLF     CX 2672   1.555   3.628   4.549  0.0668 -0.0154 -0.0416
 2673CLF     CX 2673   5.711   3.301   0.881 -0.2112  0.0589 -0.0077
 2674CLF     CX 2674   2.402   5.181   0.886 -0.1406  0.1624 -0.1132
 2675CLF     CX 2675   4.819   3.232   2.401  0.4225  0.0921  0.2883
 2676CLF     CX 2676   0.305   4.460   4.164 -0.3155  0.2771  0.0639
 2677CLF     CX 2677   3.589   1.049   2.673  0.2545  0.0496 -0.2600
 2678CLF     CX 2678   4.451   0.451   0.645  0.0717  0.1383 -0.0350
 2679CLF     CX 2679   1.217   1.530   0.014  0.2131 -0.0264 -0.1379
 2680CLF     CX 2680   3.558   5.139   4.511  0.0607 -0.0832  0.3309
 2681CLF     CX 2681   1.787   3.321   2.325  0.2693  0.0457 -0.1568
 2682CLF     CX 2682   6.903   2.717   0.129  0.1576  0.0020  0.1807
 2683CLF     CX 2683   4.585   0.475   2.032 -0.4415  0.2587  0.0507
 2684CLF     CX 2684   3.808   1.446   2.362 -0.0102  0.0439  0.0735
 2685CLF     CX 2685   5.750   1.041   0.314 -0.1667  0.0535 -0.3236
 2686CLF     CX 2686   4.753   3.660   0.746 -0.1006 -0.0046  0.0306
 2687CLF     CX 2687   4.993   5.369   2.775  0.2752  0.1030  0.0963
 2688CLF     CX 2688   4.257   1.161   5.454  0.1394  0.3756 -0.2359
 2689CLF     CX 2689   2.482   7.018   2.479 -0.1959  0.0812  0.0026
 2690CLF     CX 2690   3.100   2.265   5.957  0.0164  0.0087 -0.2017
 2691CLF     CX 2691   6.026   1.029   2.933  0.2590  0.0750 -0.1574
 2692CLF     CX 2692   4.986   5.823   6.411  0.3173 -0.0178  0.2629
 2693CLF     CX 2693   4.033   5.742   5.814 -0.0931 -0.2528  0.1461
 2694CLF     CX 2694   3.976   3.417   0.704  0.0364 -0.1343 -0.4368
 2695CLF     CX 2695   0.873   3.014   4.696 -0.1829 -0.2291  0.1982
 2696CLF     CX 2696   1.303   5.195   3.565  0.0733  0.1352 -0.3879
 2697CLF     CX 2697   7.021   0.769   4.139  0.0318 -0.1015  0.0094
 2698CLF     CX 2698   3.608   5.499   5.008 -0.1537 -0.0915  0.0151
 2699CLF     CX 2699   6.640   4.517   5.314  0.0453 -0.1684  0.2693
 2700CLF     CX 2700   6.377   3.639   6.596  0.0056 -0.4998  0.1449
 2701CLF     CX 2701   5.807   4.870   3.205 -0.0103 -0.0720 -0.0053
 2702CLF     CX 2702   5.781   5.794   3.292 -0.1232 -0.0075  0.0127
 2703CLF     CX 2703   1.364   2.582   2.046 -0.0984 -0.1246  0.0932
 2704CLF     CX 2704   4.197   6.218   1.960 -0.0431  0.0710 -0.1871
   7.15911   7.15911   7.15911
