frame t= 0.000
   21
    1UNL    C16    1   3.207   0.673   1.321
    1UNL     C8    2   3.249   1.037   1.532
    1UNL    C11    3   3.209   0.765   1.582
    1UNL    C14    4   3.145   0.646   1.779
    1UNL    C18    5   3.141   0.542   1.556
    1UNL    C20    6   3.065   0.372   1.781
    1UNL    C20    7   3.192   0.896   1.776
    1UNL    C14    8   3.131   0.773   2.031
    1UNL     O3    9   3.215   1.142   1.885
    1UNL      O   10   3.068   0.347   1.381
    1UNL     N3   11   3.316   0.907   1.284
    1UNL     H7   12   2.959   0.194   1.166
    1UNL    H11   13   3.205   1.420   1.986
    1UNL    H14   14   2.953   1.424   2.083
    1UNL    H18   15   2.726   0.217   1.273
    1UNL    F31   16   2.554   0.074   1.321
    1UNL    F34   17   2.353  -0.002   1.470
    1UNL    F36   18   2.400   0.283   1.481
    1UNL    F32   19   2.689   1.424   2.141
    1UNL    F25   20   2.519   1.279   2.267
    1UNL    F27   21   2.793   1.179   2.270
   3.97537   2.98152   2.98152
