A Gromacs structure file written by ASE 
   83
    1UNL      C    1   2.401   1.486   1.620
    1UNL     C1    2   2.480   1.465   1.733
    1UNL     C2    3   2.418   1.448   1.856
    1UNL     C3    4   2.279   1.450   1.872
    1UNL     C4    5   2.195   1.470   1.762
    1UNL     C5    6   2.262   1.488   1.638
    1UNL     C6    7   2.190   1.506   1.522
    1UNL     C7    8   2.234   1.520   1.390
    1UNL     C8    9   2.374   1.519   1.375
    1UNL     C9   10   2.453   1.503   1.488
    1UNL    C10   11   2.626   1.457   1.717
    1UNL    C11   12   2.052   1.509   1.523
    1UNL    C12   13   1.980   1.492   1.640
    1UNL      N   14   2.674   1.469   1.587
    1UNL    C13   15   2.601   1.501   1.474
    1UNL    C14   16   2.048   1.471   1.763
    1UNL    C15   17   2.007   1.524   1.391
    1UNL    C16   18   1.868   1.527   1.377
    1UNL    C17   19   1.789   1.513   1.491
    1UNL    C18   20   1.841   1.493   1.622
    1UNL    C19   21   1.762   1.473   1.736
    1UNL    C20   22   1.826   1.453   1.858
    1UNL    C21   23   1.964   1.453   1.873
    1UNL    C22   24   1.642   1.519   1.478
    1UNL     N1   25   1.568   1.494   1.594
    1UNL    C23   26   1.617   1.469   1.721
    1UNL    C24   27   1.423   1.493   1.582
    1UNL    C25   28   1.359   1.613   1.653
    1UNL    C26   29   2.818   1.452   1.573
    1UNL    C27   30   2.854   1.303   1.577
    1UNL     N2   31   2.994   1.285   1.547
    1UNL      O   32   1.586   1.542   1.373
    1UNL     O1   33   1.541   1.443   1.813
    1UNL     O2   34   2.702   1.438   1.810
    1UNL     O3   35   2.655   1.526   1.368
    1UNL     N3   36   2.121   1.531   1.311
    1UNL    C28   37   2.121   1.537   1.168
    1UNL    C29   38   3.073   1.199   1.615
    1UNL     N4   39   1.215   1.606   1.649
    1UNL    C30   40   1.143   1.657   1.547
    1UNL    C31   41   0.996   1.640   1.555
    1UNL     O4   42   1.196   1.717   1.455
    1UNL    C32   43   3.215   1.198   1.569
    1UNL     O5   44   3.033   1.129   1.706
    1UNL    C33   45   0.927   1.626   1.675
    1UNL    C34   46   0.789   1.615   1.674
    1UNL    C35   47   0.719   1.618   1.555
    1UNL    C36   48   0.787   1.634   1.435
    1UNL    C37   49   0.924   1.646   1.435
    1UNL    C38   50   3.314   1.172   1.664
    1UNL    C39   51   3.447   1.170   1.627
    1UNL    C40   52   3.483   1.193   1.495
    1UNL    C41   53   3.385   1.216   1.400
    1UNL    C42   54   3.252   1.219   1.437
    1UNL      H   55   2.481   1.432   1.942
    1UNL     H1   56   2.238   1.435   1.970
    1UNL     H2   57   2.423   1.529   1.279
    1UNL     H3   58   1.818   1.540   1.282
    1UNL     H4   59   1.763   1.437   1.945
    1UNL     H5   60   2.006   1.436   1.971
    1UNL     H6   61   1.398   1.495   1.476
    1UNL     H7   62   1.386   1.400   1.627
    1UNL     H8   63   1.391   1.614   1.758
    1UNL     H9   64   1.391   1.705   1.605
    1UNL    H10   65   2.848   1.493   1.476
    1UNL    H11   66   2.867   1.505   1.653
    1UNL    H12   67   2.836   1.261   1.677
    1UNL    H13   68   2.793   1.249   1.504
    1UNL    H14   69   3.032   1.344   1.474
    1UNL    H15   70   2.207   1.593   1.133
    1UNL    H16   71   2.125   1.436   1.125
    1UNL    H17   72   2.030   1.586   1.133
    1UNL    H18   73   1.171   1.544   1.715
    1UNL    H19   74   0.979   1.626   1.769
    1UNL    H20   75   0.736   1.604   1.768
    1UNL    H21   76   0.611   1.609   1.555
    1UNL    H22   77   0.732   1.637   1.342
    1UNL    H23   78   0.979   1.660   1.343
    1UNL    H24   79   3.283   1.153   1.766
    1UNL    H25   80   3.523   1.150   1.702
    1UNL    H26   81   3.587   1.192   1.467
    1UNL    H27   82   3.413   1.234   1.298
    1UNL    H28   83   3.177   1.237   1.361
   4.00000   3.00000   3.00000
