; UNL_GMX.top created by acpype (v: 2023.10.27) on Wed Jun 12 12:38:51 2024

[ atomtypes ]
;name   bond_type     mass     charge   ptype   sigma         epsilon       Amb
 ca       ca          0.00000  0.00000   A     3.31521e-01   4.13379e-01 ; 1.86  0.0988
 c        c           0.00000  0.00000   A     3.31521e-01   4.13379e-01 ; 1.86  0.0988
 n        n           0.00000  0.00000   A     3.18086e-01   6.84502e-01 ; 1.79  0.1636
 c3       c3          0.00000  0.00000   A     3.39771e-01   4.51035e-01 ; 1.91  0.1078
 ns       ns          0.00000  0.00000   A     3.25000e-01   7.11280e-01 ; 1.82  0.1700
 o        o           0.00000  0.00000   A     3.04812e-01   6.12119e-01 ; 1.71  0.1463
 na       na          0.00000  0.00000   A     3.20581e-01   8.54373e-01 ; 1.80  0.2042
 ha       ha          0.00000  0.00000   A     2.62548e-01   6.73624e-02 ; 1.47  0.0161
 h1       h1          0.00000  0.00000   A     2.42200e-01   8.70272e-02 ; 1.36  0.0208
 hn       hn          0.00000  0.00000   A     1.10650e-01   4.18400e-02 ; 0.62  0.0100

[ moleculetype ]
;name            nrexcl
 UNL              3

[ atoms ]
;   nr  type  resi  res  atom  cgnr     charge      mass       ; qtot   bond_type
     1   ca     1   UNL     C    1     0.012500     12.01000 ; qtot 0.012
     2   ca     1   UNL    C1    2    -0.168600     12.01000 ; qtot -0.156
     3   ca     1   UNL    C2    3    -0.017500     12.01000 ; qtot -0.174
     4   ca     1   UNL    C3    4    -0.095000     12.01000 ; qtot -0.269
     5   ca     1   UNL    C4    5     0.024000     12.01000 ; qtot -0.245
     6   ca     1   UNL    C5    6     0.001500     12.01000 ; qtot -0.243
     7   ca     1   UNL    C6    7    -0.085500     12.01000 ; qtot -0.329
     8   ca     1   UNL    C7    8    -0.225700     12.01000 ; qtot -0.554
     9   ca     1   UNL    C8    9     0.041000     12.01000 ; qtot -0.513
    10   ca     1   UNL    C9   10    -0.172600     12.01000 ; qtot -0.686
    11    c     1   UNL   C10   11     0.679599     12.01000 ; qtot -0.006
    12   ca     1   UNL   C11   12    -0.085500     12.01000 ; qtot -0.092
    13   ca     1   UNL   C12   13     0.001500     12.01000 ; qtot -0.090
    14    n     1   UNL     N   14    -0.160900     14.01000 ; qtot -0.251
    15    c     1   UNL   C13   15     0.676100     12.01000 ; qtot 0.425
    16   ca     1   UNL   C14   16     0.024000     12.01000 ; qtot 0.449
    17   ca     1   UNL   C15   17    -0.225700     12.01000 ; qtot 0.223
    18   ca     1   UNL   C16   18     0.041000     12.01000 ; qtot 0.264
    19   ca     1   UNL   C17   19    -0.172600     12.01000 ; qtot 0.092
    20   ca     1   UNL   C18   20     0.012500     12.01000 ; qtot 0.104
    21   ca     1   UNL   C19   21    -0.168600     12.01000 ; qtot -0.065
    22   ca     1   UNL   C20   22    -0.017500     12.01000 ; qtot -0.082
    23   ca     1   UNL   C21   23    -0.095000     12.01000 ; qtot -0.177
    24    c     1   UNL   C22   24     0.676100     12.01000 ; qtot 0.499
    25    n     1   UNL    N1   25    -0.160900     14.01000 ; qtot 0.338
    26    c     1   UNL   C23   26     0.679599     12.01000 ; qtot 1.018
    27   c3     1   UNL   C24   27    -0.006500     12.01000 ; qtot 1.011
    28   c3     1   UNL   C25   28     0.010500     12.01000 ; qtot 1.022
    29   c3     1   UNL   C26   29    -0.006500     12.01000 ; qtot 1.015
    30   c3     1   UNL   C27   30     0.010500     12.01000 ; qtot 1.026
    31   ns     1   UNL    N2   31    -0.180900     14.01000 ; qtot 0.845
    32    o     1   UNL     O   32    -0.635000     16.00000 ; qtot 0.210
    33    o     1   UNL    O1   33    -0.626500     16.00000 ; qtot -0.417
    34    o     1   UNL    O2   34    -0.626500     16.00000 ; qtot -1.043
    35    o     1   UNL    O3   35    -0.635000     16.00000 ; qtot -1.678
    36   na     1   UNL    N3   36     0.511700     14.01000 ; qtot -1.166
    37   c3     1   UNL   C28   37    -0.039400     12.01000 ; qtot -1.206
    38    c     1   UNL   C29   38     0.606200     12.01000 ; qtot -0.600
    39   ns     1   UNL    N4   39    -0.180900     14.01000 ; qtot -0.781
    40    c     1   UNL   C30   40     0.606200     12.01000 ; qtot -0.174
    41   ca     1   UNL   C31   41    -0.168100     12.01000 ; qtot -0.342
    42    o     1   UNL    O4   42    -0.635600     16.00000 ; qtot -0.978
    43   ca     1   UNL   C32   43    -0.168100     12.01000 ; qtot -1.146
    44    o     1   UNL    O5   44    -0.635600     16.00000 ; qtot -1.782
    45   ca     1   UNL   C33   45    -0.060250     12.01000 ; qtot -1.842
    46   ca     1   UNL   C34   46    -0.110250     12.01000 ; qtot -1.952
    47   ca     1   UNL   C35   47    -0.079500     12.01000 ; qtot -2.032
    48   ca     1   UNL   C36   48    -0.110250     12.01000 ; qtot -2.142
    49   ca     1   UNL   C37   49    -0.060250     12.01000 ; qtot -2.202
    50   ca     1   UNL   C38   50    -0.060250     12.01000 ; qtot -2.262
    51   ca     1   UNL   C39   51    -0.110250     12.01000 ; qtot -2.373
    52   ca     1   UNL   C40   52    -0.079500     12.01000 ; qtot -2.452
    53   ca     1   UNL   C41   53    -0.110250     12.01000 ; qtot -2.562
    54   ca     1   UNL   C42   54    -0.060250     12.01000 ; qtot -2.623
    55   ha     1   UNL     H   55     0.123000      1.00800 ; qtot -2.500
    56   ha     1   UNL    H1   56     0.112000      1.00800 ; qtot -2.388
    57   ha     1   UNL    H2   57     0.128000      1.00800 ; qtot -2.260
    58   ha     1   UNL    H3   58     0.128000      1.00800 ; qtot -2.132
    59   ha     1   UNL    H4   59     0.123000      1.00800 ; qtot -2.009
    60   ha     1   UNL    H5   60     0.112000      1.00800 ; qtot -1.897
    61   h1     1   UNL    H6   61     0.050450      1.00800 ; qtot -1.846
    62   h1     1   UNL    H7   62     0.050450      1.00800 ; qtot -1.796
    63   h1     1   UNL    H8   63     0.042450      1.00800 ; qtot -1.753
    64   h1     1   UNL    H9   64     0.042450      1.00800 ; qtot -1.711
    65   h1     1   UNL   H10   65     0.050450      1.00800 ; qtot -1.660
    66   h1     1   UNL   H11   66     0.050450      1.00800 ; qtot -1.610
    67   h1     1   UNL   H12   67     0.042450      1.00800 ; qtot -1.568
    68   h1     1   UNL   H13   68     0.042450      1.00800 ; qtot -1.525
    69   hn     1   UNL   H14   69     0.177500      1.00800 ; qtot -1.348
    70   h1     1   UNL   H15   70     0.030367      1.00800 ; qtot -1.317
    71   h1     1   UNL   H16   71     0.030367      1.00800 ; qtot -1.287
    72   h1     1   UNL   H17   72     0.030367      1.00800 ; qtot -1.256
    73   hn     1   UNL   H18   73     0.177500      1.00800 ; qtot -1.079
    74   ha     1   UNL   H19   74     0.113250      1.00800 ; qtot -0.966
    75   ha     1   UNL   H20   75     0.105250      1.00800 ; qtot -0.860
    76   ha     1   UNL   H21   76     0.102500      1.00800 ; qtot -0.758
    77   ha     1   UNL   H22   77     0.105250      1.00800 ; qtot -0.653
    78   ha     1   UNL   H23   78     0.113250      1.00800 ; qtot -0.539
    79   ha     1   UNL   H24   79     0.113250      1.00800 ; qtot -0.426
    80   ha     1   UNL   H25   80     0.105250      1.00800 ; qtot -0.321
    81   ha     1   UNL   H26   81     0.102500      1.00800 ; qtot -0.218
    82   ha     1   UNL   H27   82     0.105250      1.00800 ; qtot -0.113
    83   ha     1   UNL   H28   83     0.113250      1.00800 ; qtot 0.000

[ bonds ]
;   ai     aj funct   r             k
     1      2   1    1.3986e-01    2.9644e+05 ;      C - C1    
     1      6   1    1.3986e-01    2.9644e+05 ;      C - C5    
     1     10   1    1.3986e-01    2.9644e+05 ;      C - C9    
     2      3   1    1.3986e-01    2.9644e+05 ;     C1 - C2    
     2     11   1    1.4907e-01    2.1994e+05 ;     C1 - C10   
     3      4   1    1.3986e-01    2.9644e+05 ;     C2 - C3    
     3     55   1    1.0860e-01    3.0183e+05 ;     C2 - H     
     4      5   1    1.3986e-01    2.9644e+05 ;     C3 - C4    
     4     56   1    1.0860e-01    3.0183e+05 ;     C3 - H1    
     5      6   1    1.3986e-01    2.9644e+05 ;     C4 - C5    
     5     16   1    1.3986e-01    2.9644e+05 ;     C4 - C14   
     6      7   1    1.3986e-01    2.9644e+05 ;     C5 - C6    
     7      8   1    1.3986e-01    2.9644e+05 ;     C6 - C7    
     7     12   1    1.3986e-01    2.9644e+05 ;     C6 - C11   
     8      9   1    1.3986e-01    2.9644e+05 ;     C7 - C8    
     8     36   1    1.3858e-01    2.7557e+05 ;     C7 - N3    
     9     10   1    1.3986e-01    2.9644e+05 ;     C8 - C9    
     9     57   1    1.0860e-01    3.0183e+05 ;     C8 - H2    
    10     15   1    1.4907e-01    2.1994e+05 ;     C9 - C13   
    11     14   1    1.3967e-01    2.6565e+05 ;    C10 - N     
    11     34   1    1.2190e-01    4.9421e+05 ;    C10 - O2    
    12     13   1    1.3986e-01    2.9644e+05 ;    C11 - C12   
    12     17   1    1.3986e-01    2.9644e+05 ;    C11 - C15   
    13     16   1    1.3986e-01    2.9644e+05 ;    C12 - C14   
    13     20   1    1.3986e-01    2.9644e+05 ;    C12 - C18   
    14     15   1    1.3967e-01    2.6565e+05 ;      N - C13   
    14     29   1    1.4643e-01    2.1293e+05 ;      N - C26   
    15     35   1    1.2190e-01    4.9421e+05 ;    C13 - O3    
    16     23   1    1.3986e-01    2.9644e+05 ;    C14 - C21   
    17     18   1    1.3986e-01    2.9644e+05 ;    C15 - C16   
    17     36   1    1.3858e-01    2.7557e+05 ;    C15 - N3    
    18     19   1    1.3986e-01    2.9644e+05 ;    C16 - C17   
    18     58   1    1.0860e-01    3.0183e+05 ;    C16 - H3    
    19     20   1    1.3986e-01    2.9644e+05 ;    C17 - C18   
    19     24   1    1.4907e-01    2.1994e+05 ;    C17 - C22   
    20     21   1    1.3986e-01    2.9644e+05 ;    C18 - C19   
    21     22   1    1.3986e-01    2.9644e+05 ;    C19 - C20   
    21     26   1    1.4907e-01    2.1994e+05 ;    C19 - C23   
    22     23   1    1.3986e-01    2.9644e+05 ;    C20 - C21   
    22     59   1    1.0860e-01    3.0183e+05 ;    C20 - H4    
    23     60   1    1.0860e-01    3.0183e+05 ;    C21 - H5    
    24     25   1    1.3967e-01    2.6565e+05 ;    C22 - N1    
    24     32   1    1.2190e-01    4.9421e+05 ;    C22 - O     
    25     26   1    1.3967e-01    2.6565e+05 ;     N1 - C23   
    25     27   1    1.4643e-01    2.1293e+05 ;     N1 - C24   
    26     33   1    1.2190e-01    4.9421e+05 ;    C23 - O1    
    27     28   1    1.5354e-01    1.9154e+05 ;    C24 - C25   
    27     61   1    1.0969e-01    2.8804e+05 ;    C24 - H6    
    27     62   1    1.0969e-01    2.8804e+05 ;    C24 - H7    
    28     39   1    1.4620e-01    2.7506e+05 ;    C25 - N4    
    28     63   1    1.0969e-01    2.8804e+05 ;    C25 - H8    
    28     64   1    1.0969e-01    2.8804e+05 ;    C25 - H9    
    29     30   1    1.5354e-01    1.9154e+05 ;    C26 - C27   
    29     65   1    1.0969e-01    2.8804e+05 ;    C26 - H10   
    29     66   1    1.0969e-01    2.8804e+05 ;    C26 - H11   
    30     31   1    1.4620e-01    2.7506e+05 ;    C27 - N2    
    30     67   1    1.0969e-01    2.8804e+05 ;    C27 - H12   
    30     68   1    1.0969e-01    2.8804e+05 ;    C27 - H13   
    31     38   1    1.3790e-01    3.5782e+05 ;     N2 - C29   
    31     69   1    1.0130e-01    3.3740e+05 ;     N2 - H14   
    36     37   1    1.4639e-01    2.1321e+05 ;     N3 - C28   
    37     70   1    1.0969e-01    2.8804e+05 ;    C28 - H15   
    37     71   1    1.0969e-01    2.8804e+05 ;    C28 - H16   
    37     72   1    1.0969e-01    2.8804e+05 ;    C28 - H17   
    38     43   1    1.4907e-01    2.1994e+05 ;    C29 - C32   
    38     44   1    1.2190e-01    4.9421e+05 ;    C29 - O5    
    39     40   1    1.3790e-01    3.5782e+05 ;     N4 - C30   
    39     73   1    1.0130e-01    3.3740e+05 ;     N4 - H18   
    40     41   1    1.4907e-01    2.1994e+05 ;    C30 - C31   
    40     42   1    1.2190e-01    4.9421e+05 ;    C30 - O4    
    41     45   1    1.3986e-01    2.9644e+05 ;    C31 - C33   
    41     49   1    1.3986e-01    2.9644e+05 ;    C31 - C37   
    43     50   1    1.3986e-01    2.9644e+05 ;    C32 - C38   
    43     54   1    1.3986e-01    2.9644e+05 ;    C32 - C42   
    45     46   1    1.3986e-01    2.9644e+05 ;    C33 - C34   
    45     74   1    1.0860e-01    3.0183e+05 ;    C33 - H19   
    46     47   1    1.3986e-01    2.9644e+05 ;    C34 - C35   
    46     75   1    1.0860e-01    3.0183e+05 ;    C34 - H20   
    47     48   1    1.3986e-01    2.9644e+05 ;    C35 - C36   
    47     76   1    1.0860e-01    3.0183e+05 ;    C35 - H21   
    48     49   1    1.3986e-01    2.9644e+05 ;    C36 - C37   
    48     77   1    1.0860e-01    3.0183e+05 ;    C36 - H22   
    49     78   1    1.0860e-01    3.0183e+05 ;    C37 - H23   
    50     51   1    1.3986e-01    2.9644e+05 ;    C38 - C39   
    50     79   1    1.0860e-01    3.0183e+05 ;    C38 - H24   
    51     52   1    1.3986e-01    2.9644e+05 ;    C39 - C40   
    51     80   1    1.0860e-01    3.0183e+05 ;    C39 - H25   
    52     53   1    1.3986e-01    2.9644e+05 ;    C40 - C41   
    52     81   1    1.0860e-01    3.0183e+05 ;    C40 - H26   
    53     54   1    1.3986e-01    2.9644e+05 ;    C41 - C42   
    53     82   1    1.0860e-01    3.0183e+05 ;    C41 - H27   
    54     83   1    1.0860e-01    3.0183e+05 ;    C42 - H28   

[ pairs ]
;   ai     aj    funct
     1      4      1 ;      C - C3    
     1      8      1 ;      C - C7    
     1     12      1 ;      C - C11   
     1     14      1 ;      C - N     
     1     16      1 ;      C - C14   
     1     34      1 ;      C - O2    
     1     35      1 ;      C - O3    
     1     55      1 ;      C - H     
     1     57      1 ;      C - H2    
     2      5      1 ;     C1 - C4    
     2      7      1 ;     C1 - C6    
     2      9      1 ;     C1 - C8    
     2     15      1 ;     C1 - C13   
     2     29      1 ;     C1 - C26   
     2     56      1 ;     C1 - H1    
     3     14      1 ;     C2 - N     
     3     16      1 ;     C2 - C14   
     3     34      1 ;     C2 - O2    
     4      7      1 ;     C3 - C6    
     4     11      1 ;     C3 - C10   
     4     13      1 ;     C3 - C12   
     4     23      1 ;     C3 - C21   
     5      8      1 ;     C4 - C7    
     5     12      1 ;     C4 - C11   
     5     20      1 ;     C4 - C18   
     5     22      1 ;     C4 - C20   
     5     55      1 ;     C4 - H     
     5     60      1 ;     C4 - H5    
     6      3      1 ;     C5 - C2    
     6      9      1 ;     C5 - C8    
     6     11      1 ;     C5 - C10   
     6     13      1 ;     C5 - C12   
     6     15      1 ;     C5 - C13   
     6     17      1 ;     C5 - C15   
     6     23      1 ;     C5 - C21   
     6     36      1 ;     C5 - N3    
     6     56      1 ;     C5 - H1    
     7     16      1 ;     C6 - C14   
     7     18      1 ;     C6 - C16   
     7     20      1 ;     C6 - C18   
     7     37      1 ;     C6 - C28   
     7     57      1 ;     C6 - H2    
     8     13      1 ;     C7 - C12   
     8     15      1 ;     C7 - C13   
     8     18      1 ;     C7 - C16   
     8     70      1 ;     C7 - H15   
     8     71      1 ;     C7 - H16   
     8     72      1 ;     C7 - H17   
     9     12      1 ;     C8 - C11   
     9     14      1 ;     C8 - N     
     9     17      1 ;     C8 - C15   
     9     35      1 ;     C8 - O3    
     9     37      1 ;     C8 - C28   
    10      3      1 ;     C9 - C2    
    10      5      1 ;     C9 - C4    
    10      7      1 ;     C9 - C6    
    10     11      1 ;     C9 - C10   
    10     29      1 ;     C9 - C26   
    10     36      1 ;     C9 - N3    
    11     30      1 ;    C10 - C27   
    11     35      1 ;    C10 - O3    
    11     55      1 ;    C10 - H     
    11     65      1 ;    C10 - H10   
    11     66      1 ;    C10 - H11   
    12     19      1 ;    C11 - C17   
    12     21      1 ;    C11 - C19   
    12     23      1 ;    C11 - C21   
    12     37      1 ;    C11 - C28   
    12     58      1 ;    C11 - H3    
    13     18      1 ;    C12 - C16   
    13     22      1 ;    C12 - C20   
    13     24      1 ;    C12 - C22   
    13     26      1 ;    C12 - C23   
    13     36      1 ;    C12 - N3    
    13     60      1 ;    C12 - H5    
    14     31      1 ;      N - N2    
    14     67      1 ;      N - H12   
    14     68      1 ;      N - H13   
    15     30      1 ;    C13 - C27   
    15     34      1 ;    C13 - O2    
    15     57      1 ;    C13 - H2    
    15     65      1 ;    C13 - H10   
    15     66      1 ;    C13 - H11   
    16     17      1 ;    C14 - C15   
    16     19      1 ;    C14 - C17   
    16     21      1 ;    C14 - C19   
    16     56      1 ;    C14 - H1    
    16     59      1 ;    C14 - H4    
    17     20      1 ;    C15 - C18   
    17     24      1 ;    C15 - C22   
    17     70      1 ;    C15 - H15   
    17     71      1 ;    C15 - H16   
    17     72      1 ;    C15 - H17   
    18     21      1 ;    C16 - C19   
    18     25      1 ;    C16 - N1    
    18     32      1 ;    C16 - O     
    18     37      1 ;    C16 - C28   
    19     22      1 ;    C17 - C20   
    19     26      1 ;    C17 - C23   
    19     27      1 ;    C17 - C24   
    19     36      1 ;    C17 - N3    
    20     23      1 ;    C18 - C21   
    20     25      1 ;    C18 - N1    
    20     32      1 ;    C18 - O     
    20     33      1 ;    C18 - O1    
    20     58      1 ;    C18 - H3    
    20     59      1 ;    C18 - H4    
    21     24      1 ;    C19 - C22   
    21     27      1 ;    C19 - C24   
    21     60      1 ;    C19 - H5    
    22     25      1 ;    C20 - N1    
    22     33      1 ;    C20 - O1    
    23     26      1 ;    C21 - C23   
    24     28      1 ;    C22 - C25   
    24     33      1 ;    C22 - O1    
    24     58      1 ;    C22 - H3    
    24     61      1 ;    C22 - H6    
    24     62      1 ;    C22 - H7    
    25     39      1 ;     N1 - N4    
    25     63      1 ;     N1 - H8    
    25     64      1 ;     N1 - H9    
    26     28      1 ;    C23 - C25   
    26     32      1 ;    C23 - O     
    26     59      1 ;    C23 - H4    
    26     61      1 ;    C23 - H6    
    26     62      1 ;    C23 - H7    
    27     32      1 ;    C24 - O     
    27     33      1 ;    C24 - O1    
    27     40      1 ;    C24 - C30   
    27     73      1 ;    C24 - H18   
    28     41      1 ;    C25 - C31   
    28     42      1 ;    C25 - O4    
    29     34      1 ;    C26 - O2    
    29     35      1 ;    C26 - O3    
    29     38      1 ;    C26 - C29   
    29     69      1 ;    C26 - H14   
    30     43      1 ;    C27 - C32   
    30     44      1 ;    C27 - O5    
    31     50      1 ;     N2 - C38   
    31     54      1 ;     N2 - C42   
    31     65      1 ;     N2 - H10   
    31     66      1 ;     N2 - H11   
    36     57      1 ;     N3 - H2    
    36     58      1 ;     N3 - H3    
    38     51      1 ;    C29 - C39   
    38     53      1 ;    C29 - C41   
    38     67      1 ;    C29 - H12   
    38     68      1 ;    C29 - H13   
    38     79      1 ;    C29 - H24   
    38     83      1 ;    C29 - H28   
    39     45      1 ;     N4 - C33   
    39     49      1 ;     N4 - C37   
    39     61      1 ;     N4 - H6    
    39     62      1 ;     N4 - H7    
    40     46      1 ;    C30 - C34   
    40     48      1 ;    C30 - C36   
    40     63      1 ;    C30 - H8    
    40     64      1 ;    C30 - H9    
    40     74      1 ;    C30 - H19   
    40     78      1 ;    C30 - H23   
    41     47      1 ;    C31 - C35   
    41     73      1 ;    C31 - H18   
    41     75      1 ;    C31 - H20   
    41     77      1 ;    C31 - H22   
    42     45      1 ;     O4 - C33   
    42     49      1 ;     O4 - C37   
    42     73      1 ;     O4 - H18   
    43     52      1 ;    C32 - C40   
    43     69      1 ;    C32 - H14   
    43     80      1 ;    C32 - H25   
    43     82      1 ;    C32 - H27   
    44     50      1 ;     O5 - C38   
    44     54      1 ;     O5 - C42   
    44     69      1 ;     O5 - H14   
    45     48      1 ;    C33 - C36   
    45     76      1 ;    C33 - H21   
    45     78      1 ;    C33 - H23   
    46     49      1 ;    C34 - C37   
    46     77      1 ;    C34 - H22   
    47     74      1 ;    C35 - H19   
    47     78      1 ;    C35 - H23   
    48     75      1 ;    C36 - H20   
    49     74      1 ;    C37 - H19   
    49     76      1 ;    C37 - H21   
    50     53      1 ;    C38 - C41   
    50     81      1 ;    C38 - H26   
    50     83      1 ;    C38 - H28   
    51     54      1 ;    C39 - C42   
    51     82      1 ;    C39 - H27   
    52     79      1 ;    C40 - H24   
    52     83      1 ;    C40 - H28   
    53     80      1 ;    C41 - H25   
    54     79      1 ;    C42 - H24   
    54     81      1 ;    C42 - H26   
    55     56      1 ;      H - H1    
    59     60      1 ;     H4 - H5    
    61     63      1 ;     H6 - H8    
    61     64      1 ;     H6 - H9    
    62     63      1 ;     H7 - H8    
    62     64      1 ;     H7 - H9    
    63     73      1 ;     H8 - H18   
    64     73      1 ;     H9 - H18   
    65     67      1 ;    H10 - H12   
    65     68      1 ;    H10 - H13   
    66     67      1 ;    H11 - H12   
    66     68      1 ;    H11 - H13   
    67     69      1 ;    H12 - H14   
    68     69      1 ;    H13 - H14   
    74     75      1 ;    H19 - H20   
    75     76      1 ;    H20 - H21   
    76     77      1 ;    H21 - H22   
    77     78      1 ;    H22 - H23   
    79     80      1 ;    H24 - H25   
    80     81      1 ;    H25 - H26   
    81     82      1 ;    H26 - H27   
    82     83      1 ;    H27 - H28   

[ angles ]
;   ai     aj     ak    funct   theta         cth
     1      2      3      1    1.2002e+02    5.3279e+02 ;      C - C1     - C2    
     1      2     11      1    1.2033e+02    5.1413e+02 ;      C - C1     - C10   
     1      6      5      1    1.2002e+02    5.3279e+02 ;      C - C5     - C4    
     1      6      7      1    1.2002e+02    5.3279e+02 ;      C - C5     - C6    
     1     10      9      1    1.2002e+02    5.3279e+02 ;      C - C9     - C8    
     1     10     15      1    1.2033e+02    5.1413e+02 ;      C - C9     - C13   
     2      1      6      1    1.2002e+02    5.3279e+02 ;     C1 - C      - C5    
     2      1     10      1    1.2002e+02    5.3279e+02 ;     C1 - C      - C9    
     2      3      4      1    1.2002e+02    5.3279e+02 ;     C1 - C2     - C3    
     2      3     55      1    1.1988e+02    3.7572e+02 ;     C1 - C2     - H     
     2     11     14      1    1.1588e+02    5.5647e+02 ;     C1 - C10    - N     
     2     11     34      1    1.2260e+02    6.5237e+02 ;     C1 - C10    - O2    
     3      2     11      1    1.2033e+02    5.1413e+02 ;     C2 - C1     - C10   
     3      4      5      1    1.2002e+02    5.3279e+02 ;     C2 - C3     - C4    
     3      4     56      1    1.1988e+02    3.7572e+02 ;     C2 - C3     - H1    
     4      3     55      1    1.1988e+02    3.7572e+02 ;     C3 - C2     - H     
     4      5      6      1    1.2002e+02    5.3279e+02 ;     C3 - C4     - C5    
     4      5     16      1    1.2002e+02    5.3279e+02 ;     C3 - C4     - C14   
     5      4     56      1    1.1988e+02    3.7572e+02 ;     C4 - C3     - H1    
     5      6      7      1    1.2002e+02    5.3279e+02 ;     C4 - C5     - C6    
     5     16     13      1    1.2002e+02    5.3279e+02 ;     C4 - C14    - C12   
     5     16     23      1    1.2002e+02    5.3279e+02 ;     C4 - C14    - C21   
     6      1     10      1    1.2002e+02    5.3279e+02 ;     C5 - C      - C9    
     6      5     16      1    1.2002e+02    5.3279e+02 ;     C5 - C4     - C14   
     6      7      8      1    1.2002e+02    5.3279e+02 ;     C5 - C6     - C7    
     6      7     12      1    1.2002e+02    5.3279e+02 ;     C5 - C6     - C11   
     7      8      9      1    1.2002e+02    5.3279e+02 ;     C6 - C7     - C8    
     7      8     36      1    1.2031e+02    5.6752e+02 ;     C6 - C7     - N3    
     7     12     13      1    1.2002e+02    5.3279e+02 ;     C6 - C11    - C12   
     7     12     17      1    1.2002e+02    5.3279e+02 ;     C6 - C11    - C15   
     8      7     12      1    1.2002e+02    5.3279e+02 ;     C7 - C6     - C11   
     8      9     10      1    1.2002e+02    5.3279e+02 ;     C7 - C8     - C9    
     8      9     57      1    1.1988e+02    3.7572e+02 ;     C7 - C8     - H2    
     8     36     17      1    1.2003e+02    6.6459e+02 ;     C7 - N3     - C15   
     8     36     37      1    1.2050e+02    6.4408e+02 ;     C7 - N3     - C28   
     9      8     36      1    1.2031e+02    5.6752e+02 ;     C8 - C7     - N3    
     9     10     15      1    1.2033e+02    5.1413e+02 ;     C8 - C9     - C13   
    10      9     57      1    1.1988e+02    3.7572e+02 ;     C9 - C8     - H2    
    10     15     14      1    1.1588e+02    5.5647e+02 ;     C9 - C13    - N     
    10     15     35      1    1.2260e+02    6.5237e+02 ;     C9 - C13    - O3    
    11     14     15      1    1.2521e+02    6.4559e+02 ;    C10 - N      - C13   
    11     14     29      1    1.1883e+02    6.4634e+02 ;    C10 - N      - C26   
    12     13     16      1    1.2002e+02    5.3279e+02 ;    C11 - C12    - C14   
    12     13     20      1    1.2002e+02    5.3279e+02 ;    C11 - C12    - C18   
    12     17     18      1    1.2002e+02    5.3279e+02 ;    C11 - C15    - C16   
    12     17     36      1    1.2031e+02    5.6752e+02 ;    C11 - C15    - N3    
    13     12     17      1    1.2002e+02    5.3279e+02 ;    C12 - C11    - C15   
    13     16     23      1    1.2002e+02    5.3279e+02 ;    C12 - C14    - C21   
    13     20     19      1    1.2002e+02    5.3279e+02 ;    C12 - C18    - C17   
    13     20     21      1    1.2002e+02    5.3279e+02 ;    C12 - C18    - C19   
    14     11     34      1    1.2257e+02    7.2534e+02 ;      N - C10    - O2    
    14     15     35      1    1.2257e+02    7.2534e+02 ;      N - C13    - O3    
    14     29     30      1    1.1278e+02    5.4350e+02 ;      N - C26    - C27   
    14     29     65      1    1.0876e+02    4.0242e+02 ;      N - C26    - H10   
    14     29     66      1    1.0876e+02    4.0242e+02 ;      N - C26    - H11   
    15     14     29      1    1.1883e+02    6.4634e+02 ;    C13 - N      - C26   
    16     13     20      1    1.2002e+02    5.3279e+02 ;    C14 - C12    - C18   
    16     23     22      1    1.2002e+02    5.3279e+02 ;    C14 - C21    - C20   
    16     23     60      1    1.1988e+02    3.7572e+02 ;    C14 - C21    - H5    
    17     18     19      1    1.2002e+02    5.3279e+02 ;    C15 - C16    - C17   
    17     18     58      1    1.1988e+02    3.7572e+02 ;    C15 - C16    - H3    
    17     36     37      1    1.2050e+02    6.4408e+02 ;    C15 - N3     - C28   
    18     17     36      1    1.2031e+02    5.6752e+02 ;    C16 - C15    - N3    
    18     19     20      1    1.2002e+02    5.3279e+02 ;    C16 - C17    - C18   
    18     19     24      1    1.2033e+02    5.1413e+02 ;    C16 - C17    - C22   
    19     18     58      1    1.1988e+02    3.7572e+02 ;    C17 - C16    - H3    
    19     20     21      1    1.2002e+02    5.3279e+02 ;    C17 - C18    - C19   
    19     24     25      1    1.1588e+02    5.5647e+02 ;    C17 - C22    - N1    
    19     24     32      1    1.2260e+02    6.5237e+02 ;    C17 - C22    - O     
    20     19     24      1    1.2033e+02    5.1413e+02 ;    C18 - C17    - C22   
    20     21     22      1    1.2002e+02    5.3279e+02 ;    C18 - C19    - C20   
    20     21     26      1    1.2033e+02    5.1413e+02 ;    C18 - C19    - C23   
    21     22     23      1    1.2002e+02    5.3279e+02 ;    C19 - C20    - C21   
    21     22     59      1    1.1988e+02    3.7572e+02 ;    C19 - C20    - H4    
    21     26     25      1    1.1588e+02    5.5647e+02 ;    C19 - C23    - N1    
    21     26     33      1    1.2260e+02    6.5237e+02 ;    C19 - C23    - O1    
    22     21     26      1    1.2033e+02    5.1413e+02 ;    C20 - C19    - C23   
    22     23     60      1    1.1988e+02    3.7572e+02 ;    C20 - C21    - H5    
    23     22     59      1    1.1988e+02    3.7572e+02 ;    C21 - C20    - H4    
    24     25     26      1    1.2521e+02    6.4559e+02 ;    C22 - N1     - C23   
    24     25     27      1    1.1883e+02    6.4634e+02 ;    C22 - N1     - C24   
    25     24     32      1    1.2257e+02    7.2534e+02 ;     N1 - C22    - O     
    25     26     33      1    1.2257e+02    7.2534e+02 ;     N1 - C23    - O1    
    25     27     28      1    1.1278e+02    5.4350e+02 ;     N1 - C24    - C25   
    25     27     61      1    1.0876e+02    4.0242e+02 ;     N1 - C24    - H6    
    25     27     62      1    1.0876e+02    4.0242e+02 ;     N1 - C24    - H7    
    26     25     27      1    1.1883e+02    6.4634e+02 ;    C23 - N1     - C24   
    27     28     39      1    1.1161e+02    5.5145e+02 ;    C24 - C25    - N4    
    27     28     63      1    1.0959e+02    3.6217e+02 ;    C24 - C25    - H8    
    27     28     64      1    1.0959e+02    3.6217e+02 ;    C24 - C25    - H9    
    28     27     61      1    1.0959e+02    3.6217e+02 ;    C25 - C24    - H6    
    28     27     62      1    1.0959e+02    3.6217e+02 ;    C25 - C24    - H7    
    28     39     40      1    1.2069e+02    5.3053e+02 ;    C25 - N4     - C30   
    28     39     73      1    1.1768e+02    3.8325e+02 ;    C25 - N4     - H18   
    29     30     31      1    1.1161e+02    5.5145e+02 ;    C26 - C27    - N2    
    29     30     67      1    1.0959e+02    3.6217e+02 ;    C26 - C27    - H12   
    29     30     68      1    1.0959e+02    3.6217e+02 ;    C26 - C27    - H13   
    30     29     65      1    1.0959e+02    3.6217e+02 ;    C27 - C26    - H10   
    30     29     66      1    1.0959e+02    3.6217e+02 ;    C27 - C26    - H11   
    30     31     38      1    1.2069e+02    5.3053e+02 ;    C27 - N2     - C29   
    30     31     69      1    1.1768e+02    3.8325e+02 ;    C27 - N2     - H14   
    31     30     67      1    1.0888e+02    4.1673e+02 ;     N2 - C27    - H12   
    31     30     68      1    1.0888e+02    4.1673e+02 ;     N2 - C27    - H13   
    31     38     43      1    1.1525e+02    5.6651e+02 ;     N2 - C29    - C32   
    31     38     44      1    1.2305e+02    6.2091e+02 ;     N2 - C29    - O5    
    36     37     70      1    1.0876e+02    4.0250e+02 ;     N3 - C28    - H15   
    36     37     71      1    1.0876e+02    4.0250e+02 ;     N3 - C28    - H16   
    36     37     72      1    1.0876e+02    4.0250e+02 ;     N3 - C28    - H17   
    38     31     69      1    1.1755e+02    4.0417e+02 ;    C29 - N2     - H14   
    38     43     50      1    1.2033e+02    5.1413e+02 ;    C29 - C32    - C38   
    38     43     54      1    1.2033e+02    5.1413e+02 ;    C29 - C32    - C42   
    39     28     63      1    1.0888e+02    4.1673e+02 ;     N4 - C25    - H8    
    39     28     64      1    1.0888e+02    4.1673e+02 ;     N4 - C25    - H9    
    39     40     41      1    1.1525e+02    5.6651e+02 ;     N4 - C30    - C31   
    39     40     42      1    1.2305e+02    6.2091e+02 ;     N4 - C30    - O4    
    40     39     73      1    1.1755e+02    4.0417e+02 ;    C30 - N4     - H18   
    40     41     45      1    1.2033e+02    5.1413e+02 ;    C30 - C31    - C33   
    40     41     49      1    1.2033e+02    5.1413e+02 ;    C30 - C31    - C37   
    41     40     42      1    1.2260e+02    6.5237e+02 ;    C31 - C30    - O4    
    41     45     46      1    1.2002e+02    5.3279e+02 ;    C31 - C33    - C34   
    41     45     74      1    1.1988e+02    3.7572e+02 ;    C31 - C33    - H19   
    41     49     48      1    1.2002e+02    5.3279e+02 ;    C31 - C37    - C36   
    41     49     78      1    1.1988e+02    3.7572e+02 ;    C31 - C37    - H23   
    43     38     44      1    1.2260e+02    6.5237e+02 ;    C32 - C29    - O5    
    43     50     51      1    1.2002e+02    5.3279e+02 ;    C32 - C38    - C39   
    43     50     79      1    1.1988e+02    3.7572e+02 ;    C32 - C38    - H24   
    43     54     53      1    1.2002e+02    5.3279e+02 ;    C32 - C42    - C41   
    43     54     83      1    1.1988e+02    3.7572e+02 ;    C32 - C42    - H28   
    45     41     49      1    1.2002e+02    5.3279e+02 ;    C33 - C31    - C37   
    45     46     47      1    1.2002e+02    5.3279e+02 ;    C33 - C34    - C35   
    45     46     75      1    1.1988e+02    3.7572e+02 ;    C33 - C34    - H20   
    46     45     74      1    1.1988e+02    3.7572e+02 ;    C34 - C33    - H19   
    46     47     48      1    1.2002e+02    5.3279e+02 ;    C34 - C35    - C36   
    46     47     76      1    1.1988e+02    3.7572e+02 ;    C34 - C35    - H21   
    47     46     75      1    1.1988e+02    3.7572e+02 ;    C35 - C34    - H20   
    47     48     49      1    1.2002e+02    5.3279e+02 ;    C35 - C36    - C37   
    47     48     77      1    1.1988e+02    3.7572e+02 ;    C35 - C36    - H22   
    48     47     76      1    1.1988e+02    3.7572e+02 ;    C36 - C35    - H21   
    48     49     78      1    1.1988e+02    3.7572e+02 ;    C36 - C37    - H23   
    49     48     77      1    1.1988e+02    3.7572e+02 ;    C37 - C36    - H22   
    50     43     54      1    1.2002e+02    5.3279e+02 ;    C38 - C32    - C42   
    50     51     52      1    1.2002e+02    5.3279e+02 ;    C38 - C39    - C40   
    50     51     80      1    1.1988e+02    3.7572e+02 ;    C38 - C39    - H25   
    51     50     79      1    1.1988e+02    3.7572e+02 ;    C39 - C38    - H24   
    51     52     53      1    1.2002e+02    5.3279e+02 ;    C39 - C40    - C41   
    51     52     81      1    1.1988e+02    3.7572e+02 ;    C39 - C40    - H26   
    52     51     80      1    1.1988e+02    3.7572e+02 ;    C40 - C39    - H25   
    52     53     54      1    1.2002e+02    5.3279e+02 ;    C40 - C41    - C42   
    52     53     82      1    1.1988e+02    3.7572e+02 ;    C40 - C41    - H27   
    53     52     81      1    1.1988e+02    3.7572e+02 ;    C41 - C40    - H26   
    53     54     83      1    1.1988e+02    3.7572e+02 ;    C41 - C42    - H28   
    54     53     82      1    1.1988e+02    3.7572e+02 ;    C42 - C41    - H27   
    61     27     62      1    1.0855e+02    2.9824e+02 ;     H6 - C24    - H7    
    63     28     64      1    1.0855e+02    2.9824e+02 ;     H8 - C25    - H9    
    65     29     66      1    1.0855e+02    2.9824e+02 ;    H10 - C26    - H11   
    67     30     68      1    1.0855e+02    2.9824e+02 ;    H12 - C27    - H13   
    70     37     71      1    1.0855e+02    2.9824e+02 ;    H15 - C28    - H16   
    70     37     72      1    1.0855e+02    2.9824e+02 ;    H15 - C28    - H17   
    71     37     72      1    1.0855e+02    2.9824e+02 ;    H16 - C28    - H17   

[ dihedrals ] ; propers
; for gromacs 4.5 or higher, using funct 9
;    i      j      k      l   func   phase     kd      pn
     1      2      3      4      9   180.00  15.16700   2 ;      C-    C1-    C2-    C3
     1      2      3     55      9   180.00  15.16700   2 ;      C-    C1-    C2-     H
     1      2     11     14      9   180.00   8.88054   2 ;      C-    C1-   C10-     N
     1      2     11     34      9   180.00   2.42672   2 ;      C-    C1-   C10-    O2
     1      6      5      4      9   180.00  15.16700   2 ;      C-    C5-    C4-    C3
     1      6      5     16      9   180.00  15.16700   2 ;      C-    C5-    C4-   C14
     1      6      7      8      9   180.00  15.16700   2 ;      C-    C5-    C6-    C7
     1      6      7     12      9   180.00  15.16700   2 ;      C-    C5-    C6-   C11
     1     10      9      8      9   180.00  15.16700   2 ;      C-    C9-    C8-    C7
     1     10      9     57      9   180.00  15.16700   2 ;      C-    C9-    C8-    H2
     1     10     15     14      9   180.00   8.88054   2 ;      C-    C9-   C13-     N
     1     10     15     35      9   180.00   2.42672   2 ;      C-    C9-   C13-    O3
     2      1      6      5      9   180.00  15.16700   2 ;     C1-     C-    C5-    C4
     2      1      6      7      9   180.00  15.16700   2 ;     C1-     C-    C5-    C6
     2      1     10      9      9   180.00  15.16700   2 ;     C1-     C-    C9-    C8
     2      1     10     15      9   180.00  15.16700   2 ;     C1-     C-    C9-   C13
     2      3      4      5      9   180.00  15.16700   2 ;     C1-    C2-    C3-    C4
     2      3      4     56      9   180.00  15.16700   2 ;     C1-    C2-    C3-    H1
     2     11     14     15      9   180.00  10.46000   2 ;     C1-   C10-     N-   C13
     2     11     14     29      9     0.00   1.71544   3 ;     C1-   C10-     N-   C26
     2     11     14     29      9     0.00  20.16688   1 ;     C1-   C10-     N-   C26
     2     11     14     29      9   180.00   9.12112   2 ;     C1-   C10-     N-   C26
     3      2     11     14      9   180.00   8.88054   2 ;     C2-    C1-   C10-     N
     3      2     11     34      9   180.00   2.42672   2 ;     C2-    C1-   C10-    O2
     3      4      5      6      9   180.00  15.16700   2 ;     C2-    C3-    C4-    C5
     3      4      5     16      9   180.00  15.16700   2 ;     C2-    C3-    C4-   C14
     4      3      2     11      9   180.00  15.16700   2 ;     C3-    C2-    C1-   C10
     4      5      6      7      9   180.00  15.16700   2 ;     C3-    C4-    C5-    C6
     4      5     16     13      9   180.00  15.16700   2 ;     C3-    C4-   C14-   C12
     4      5     16     23      9   180.00  15.16700   2 ;     C3-    C4-   C14-   C21
     5      4      3     55      9   180.00  15.16700   2 ;     C4-    C3-    C2-     H
     5      6      7      8      9   180.00  15.16700   2 ;     C4-    C5-    C6-    C7
     5      6      7     12      9   180.00  15.16700   2 ;     C4-    C5-    C6-   C11
     5     16     13     12      9   180.00  15.16700   2 ;     C4-   C14-   C12-   C11
     5     16     13     20      9   180.00  15.16700   2 ;     C4-   C14-   C12-   C18
     5     16     23     22      9   180.00  15.16700   2 ;     C4-   C14-   C21-   C20
     5     16     23     60      9   180.00  15.16700   2 ;     C4-   C14-   C21-    H5
     6      1      2      3      9   180.00  15.16700   2 ;     C5-     C-    C1-    C2
     6      1      2     11      9   180.00  15.16700   2 ;     C5-     C-    C1-   C10
     6      1     10      9      9   180.00  15.16700   2 ;     C5-     C-    C9-    C8
     6      1     10     15      9   180.00  15.16700   2 ;     C5-     C-    C9-   C13
     6      5      4     56      9   180.00  15.16700   2 ;     C5-    C4-    C3-    H1
     6      5     16     13      9   180.00  15.16700   2 ;     C5-    C4-   C14-   C12
     6      5     16     23      9   180.00  15.16700   2 ;     C5-    C4-   C14-   C21
     6      7      8      9      9   180.00  15.16700   2 ;     C5-    C6-    C7-    C8
     6      7      8     36      9   180.00  15.16700   2 ;     C5-    C6-    C7-    N3
     6      7     12     13      9   180.00  15.16700   2 ;     C5-    C6-   C11-   C12
     6      7     12     17      9   180.00  15.16700   2 ;     C5-    C6-   C11-   C15
     7      6      5     16      9   180.00  15.16700   2 ;     C6-    C5-    C4-   C14
     7      8      9     10      9   180.00  15.16700   2 ;     C6-    C7-    C8-    C9
     7      8      9     57      9   180.00  15.16700   2 ;     C6-    C7-    C8-    H2
     7      8     36     17      9   180.00   1.25520   2 ;     C6-    C7-    N3-   C15
     7      8     36     37      9   180.00   1.25520   2 ;     C6-    C7-    N3-   C28
     7     12     13     16      9   180.00  15.16700   2 ;     C6-   C11-   C12-   C14
     7     12     13     20      9   180.00  15.16700   2 ;     C6-   C11-   C12-   C18
     7     12     17     18      9   180.00  15.16700   2 ;     C6-   C11-   C15-   C16
     7     12     17     36      9   180.00  15.16700   2 ;     C6-   C11-   C15-    N3
     8      7     12     13      9   180.00  15.16700   2 ;     C7-    C6-   C11-   C12
     8      7     12     17      9   180.00  15.16700   2 ;     C7-    C6-   C11-   C15
     8      9     10     15      9   180.00  15.16700   2 ;     C7-    C8-    C9-   C13
     8     36     17     12      9   180.00   1.25520   2 ;     C7-    N3-   C15-   C11
     8     36     17     18      9   180.00   1.25520   2 ;     C7-    N3-   C15-   C16
     8     36     37     70      9     0.00   0.00000   0 ;     C7-    N3-   C28-   H15
     8     36     37     71      9     0.00   0.00000   0 ;     C7-    N3-   C28-   H16
     8     36     37     72      9     0.00   0.00000   0 ;     C7-    N3-   C28-   H17
     9      8      7     12      9   180.00  15.16700   2 ;     C8-    C7-    C6-   C11
     9      8     36     17      9   180.00   1.25520   2 ;     C8-    C7-    N3-   C15
     9      8     36     37      9   180.00   1.25520   2 ;     C8-    C7-    N3-   C28
     9     10     15     14      9   180.00   8.88054   2 ;     C8-    C9-   C13-     N
     9     10     15     35      9   180.00   2.42672   2 ;     C8-    C9-   C13-    O3
    10      1      2      3      9   180.00  15.16700   2 ;     C9-     C-    C1-    C2
    10      1      2     11      9   180.00  15.16700   2 ;     C9-     C-    C1-   C10
    10      1      6      5      9   180.00  15.16700   2 ;     C9-     C-    C5-    C4
    10      1      6      7      9   180.00  15.16700   2 ;     C9-     C-    C5-    C6
    10      9      8     36      9   180.00  15.16700   2 ;     C9-    C8-    C7-    N3
    10     15     14     11      9   180.00  10.46000   2 ;     C9-   C13-     N-   C10
    10     15     14     29      9     0.00   1.71544   3 ;     C9-   C13-     N-   C26
    10     15     14     29      9     0.00  20.16688   1 ;     C9-   C13-     N-   C26
    10     15     14     29      9   180.00   9.12112   2 ;     C9-   C13-     N-   C26
    11      2      3     55      9   180.00  15.16700   2 ;    C10-    C1-    C2-     H
    11     14     15     35      9   180.00  10.46000   2 ;    C10-     N-   C13-    O3
    11     14     29     30      9     0.00   9.45584   1 ;    C10-     N-   C26-   C27
    11     14     29     30      9   180.00   0.12552   3 ;    C10-     N-   C26-   C27
    11     14     29     30      9   180.00   2.71960   4 ;    C10-     N-   C26-   C27
    11     14     29     65      9   180.00   0.00000   2 ;    C10-     N-   C26-   H10
    11     14     29     66      9   180.00   0.00000   2 ;    C10-     N-   C26-   H11
    12      7      8     36      9   180.00  15.16700   2 ;    C11-    C6-    C7-    N3
    12     13     16     23      9   180.00  15.16700   2 ;    C11-   C12-   C14-   C21
    12     13     20     19      9   180.00  15.16700   2 ;    C11-   C12-   C18-   C17
    12     13     20     21      9   180.00  15.16700   2 ;    C11-   C12-   C18-   C19
    12     17     18     19      9   180.00  15.16700   2 ;    C11-   C15-   C16-   C17
    12     17     18     58      9   180.00  15.16700   2 ;    C11-   C15-   C16-    H3
    12     17     36     37      9   180.00   1.25520   2 ;    C11-   C15-    N3-   C28
    13     12     17     18      9   180.00  15.16700   2 ;    C12-   C11-   C15-   C16
    13     12     17     36      9   180.00  15.16700   2 ;    C12-   C11-   C15-    N3
    13     16     23     22      9   180.00  15.16700   2 ;    C12-   C14-   C21-   C20
    13     16     23     60      9   180.00  15.16700   2 ;    C12-   C14-   C21-    H5
    13     20     19     18      9   180.00  15.16700   2 ;    C12-   C18-   C17-   C16
    13     20     19     24      9   180.00  15.16700   2 ;    C12-   C18-   C17-   C22
    13     20     21     22      9   180.00  15.16700   2 ;    C12-   C18-   C19-   C20
    13     20     21     26      9   180.00  15.16700   2 ;    C12-   C18-   C19-   C23
    14     29     30     31      9     0.00   0.65084   3 ;      N-   C26-   C27-    N2
    14     29     30     67      9     0.00   0.65084   3 ;      N-   C26-   C27-   H12
    14     29     30     68      9     0.00   0.65084   3 ;      N-   C26-   C27-   H13
    15     10      9     57      9   180.00  15.16700   2 ;    C13-    C9-    C8-    H2
    15     14     11     34      9   180.00  10.46000   2 ;    C13-     N-   C10-    O2
    15     14     29     30      9     0.00   9.45584   1 ;    C13-     N-   C26-   C27
    15     14     29     30      9   180.00   0.12552   3 ;    C13-     N-   C26-   C27
    15     14     29     30      9   180.00   2.71960   4 ;    C13-     N-   C26-   C27
    15     14     29     65      9   180.00   0.00000   2 ;    C13-     N-   C26-   H10
    15     14     29     66      9   180.00   0.00000   2 ;    C13-     N-   C26-   H11
    16      5      4     56      9   180.00  15.16700   2 ;    C14-    C4-    C3-    H1
    16     13     12     17      9   180.00  15.16700   2 ;    C14-   C12-   C11-   C15
    16     13     20     19      9   180.00  15.16700   2 ;    C14-   C12-   C18-   C17
    16     13     20     21      9   180.00  15.16700   2 ;    C14-   C12-   C18-   C19
    16     23     22     21      9   180.00  15.16700   2 ;    C14-   C21-   C20-   C19
    16     23     22     59      9   180.00  15.16700   2 ;    C14-   C21-   C20-    H4
    17     12     13     20      9   180.00  15.16700   2 ;    C15-   C11-   C12-   C18
    17     18     19     20      9   180.00  15.16700   2 ;    C15-   C16-   C17-   C18
    17     18     19     24      9   180.00  15.16700   2 ;    C15-   C16-   C17-   C22
    17     36     37     70      9     0.00   0.00000   0 ;    C15-    N3-   C28-   H15
    17     36     37     71      9     0.00   0.00000   0 ;    C15-    N3-   C28-   H16
    17     36     37     72      9     0.00   0.00000   0 ;    C15-    N3-   C28-   H17
    18     17     36     37      9   180.00   1.25520   2 ;    C16-   C15-    N3-   C28
    18     19     20     21      9   180.00  15.16700   2 ;    C16-   C17-   C18-   C19
    18     19     24     25      9   180.00   8.88054   2 ;    C16-   C17-   C22-    N1
    18     19     24     32      9   180.00   2.42672   2 ;    C16-   C17-   C22-     O
    19     18     17     36      9   180.00  15.16700   2 ;    C17-   C16-   C15-    N3
    19     20     21     22      9   180.00  15.16700   2 ;    C17-   C18-   C19-   C20
    19     20     21     26      9   180.00  15.16700   2 ;    C17-   C18-   C19-   C23
    19     24     25     26      9   180.00  10.46000   2 ;    C17-   C22-    N1-   C23
    19     24     25     27      9     0.00   1.71544   3 ;    C17-   C22-    N1-   C24
    19     24     25     27      9     0.00  20.16688   1 ;    C17-   C22-    N1-   C24
    19     24     25     27      9   180.00   9.12112   2 ;    C17-   C22-    N1-   C24
    20     13     16     23      9   180.00  15.16700   2 ;    C18-   C12-   C14-   C21
    20     19     18     58      9   180.00  15.16700   2 ;    C18-   C17-   C16-    H3
    20     19     24     25      9   180.00   8.88054   2 ;    C18-   C17-   C22-    N1
    20     19     24     32      9   180.00   2.42672   2 ;    C18-   C17-   C22-     O
    20     21     22     23      9   180.00  15.16700   2 ;    C18-   C19-   C20-   C21
    20     21     22     59      9   180.00  15.16700   2 ;    C18-   C19-   C20-    H4
    20     21     26     25      9   180.00   8.88054   2 ;    C18-   C19-   C23-    N1
    20     21     26     33      9   180.00   2.42672   2 ;    C18-   C19-   C23-    O1
    21     20     19     24      9   180.00  15.16700   2 ;    C19-   C18-   C17-   C22
    21     22     23     60      9   180.00  15.16700   2 ;    C19-   C20-   C21-    H5
    21     26     25     24      9   180.00  10.46000   2 ;    C19-   C23-    N1-   C22
    21     26     25     27      9     0.00   1.71544   3 ;    C19-   C23-    N1-   C24
    21     26     25     27      9     0.00  20.16688   1 ;    C19-   C23-    N1-   C24
    21     26     25     27      9   180.00   9.12112   2 ;    C19-   C23-    N1-   C24
    22     21     26     25      9   180.00   8.88054   2 ;    C20-   C19-   C23-    N1
    22     21     26     33      9   180.00   2.42672   2 ;    C20-   C19-   C23-    O1
    23     22     21     26      9   180.00  15.16700   2 ;    C21-   C20-   C19-   C23
    24     19     18     58      9   180.00  15.16700   2 ;    C22-   C17-   C16-    H3
    24     25     26     33      9   180.00  10.46000   2 ;    C22-    N1-   C23-    O1
    24     25     27     28      9     0.00   9.45584   1 ;    C22-    N1-   C24-   C25
    24     25     27     28      9   180.00   0.12552   3 ;    C22-    N1-   C24-   C25
    24     25     27     28      9   180.00   2.71960   4 ;    C22-    N1-   C24-   C25
    24     25     27     61      9   180.00   0.00000   2 ;    C22-    N1-   C24-    H6
    24     25     27     62      9   180.00   0.00000   2 ;    C22-    N1-   C24-    H7
    25     27     28     39      9     0.00   0.65084   3 ;     N1-   C24-   C25-    N4
    25     27     28     63      9     0.00   0.65084   3 ;     N1-   C24-   C25-    H8
    25     27     28     64      9     0.00   0.65084   3 ;     N1-   C24-   C25-    H9
    26     21     22     59      9   180.00  15.16700   2 ;    C23-   C19-   C20-    H4
    26     25     24     32      9   180.00  10.46000   2 ;    C23-    N1-   C22-     O
    26     25     27     28      9     0.00   9.45584   1 ;    C23-    N1-   C24-   C25
    26     25     27     28      9   180.00   0.12552   3 ;    C23-    N1-   C24-   C25
    26     25     27     28      9   180.00   2.71960   4 ;    C23-    N1-   C24-   C25
    26     25     27     61      9   180.00   0.00000   2 ;    C23-    N1-   C24-    H6
    26     25     27     62      9   180.00   0.00000   2 ;    C23-    N1-   C24-    H7
    27     25     24     32      9   180.00  10.46000   2 ;    C24-    N1-   C22-     O
    27     25     26     33      9   180.00  10.46000   2 ;    C24-    N1-   C23-    O1
    27     28     39     40      9     0.00   0.00000   0 ;    C24-   C25-    N4-   C30
    27     28     39     40      9     0.00   2.21752   1 ;    C24-   C25-    N4-   C30
    27     28     39     40      9   180.00   0.62760   3 ;    C24-   C25-    N4-   C30
    27     28     39     40      9   180.00   2.09200   4 ;    C24-   C25-    N4-   C30
    27     28     39     73      9     0.00   0.00000   0 ;    C24-   C25-    N4-   H18
    28     39     40     41      9   180.00  10.46000   2 ;    C25-    N4-   C30-   C31
    28     39     40     42      9   180.00  10.46000   2 ;    C25-    N4-   C30-    O4
    29     14     11     34      9   180.00  10.46000   2 ;    C26-     N-   C10-    O2
    29     14     15     35      9   180.00  10.46000   2 ;    C26-     N-   C13-    O3
    29     30     31     38      9     0.00   0.00000   0 ;    C26-   C27-    N2-   C29
    29     30     31     38      9     0.00   2.21752   1 ;    C26-   C27-    N2-   C29
    29     30     31     38      9   180.00   0.62760   3 ;    C26-   C27-    N2-   C29
    29     30     31     38      9   180.00   2.09200   4 ;    C26-   C27-    N2-   C29
    29     30     31     69      9     0.00   0.00000   0 ;    C26-   C27-    N2-   H14
    30     31     38     43      9   180.00  10.46000   2 ;    C27-    N2-   C29-   C32
    30     31     38     44      9   180.00  10.46000   2 ;    C27-    N2-   C29-    O5
    31     30     29     65      9     0.00   0.65084   3 ;     N2-   C27-   C26-   H10
    31     30     29     66      9     0.00   0.65084   3 ;     N2-   C27-   C26-   H11
    31     38     43     50      9   180.00   4.18400   2 ;     N2-   C29-   C32-   C38
    31     38     43     54      9   180.00   4.18400   2 ;     N2-   C29-   C32-   C42
    36      8      9     57      9   180.00  15.16700   2 ;     N3-    C7-    C8-    H2
    36     17     18     58      9   180.00  15.16700   2 ;     N3-   C15-   C16-    H3
    38     31     30     67      9     0.00   0.00000   0 ;    C29-    N2-   C27-   H12
    38     31     30     68      9     0.00   0.00000   0 ;    C29-    N2-   C27-   H13
    38     43     50     51      9   180.00  15.16700   2 ;    C29-   C32-   C38-   C39
    38     43     50     79      9   180.00  15.16700   2 ;    C29-   C32-   C38-   H24
    38     43     54     53      9   180.00  15.16700   2 ;    C29-   C32-   C42-   C41
    38     43     54     83      9   180.00  15.16700   2 ;    C29-   C32-   C42-   H28
    39     28     27     61      9     0.00   0.65084   3 ;     N4-   C25-   C24-    H6
    39     28     27     62      9     0.00   0.65084   3 ;     N4-   C25-   C24-    H7
    39     40     41     45      9   180.00   4.18400   2 ;     N4-   C30-   C31-   C33
    39     40     41     49      9   180.00   4.18400   2 ;     N4-   C30-   C31-   C37
    40     39     28     63      9     0.00   0.00000   0 ;    C30-    N4-   C25-    H8
    40     39     28     64      9     0.00   0.00000   0 ;    C30-    N4-   C25-    H9
    40     41     45     46      9   180.00  15.16700   2 ;    C30-   C31-   C33-   C34
    40     41     45     74      9   180.00  15.16700   2 ;    C30-   C31-   C33-   H19
    40     41     49     48      9   180.00  15.16700   2 ;    C30-   C31-   C37-   C36
    40     41     49     78      9   180.00  15.16700   2 ;    C30-   C31-   C37-   H23
    41     40     39     73      9   180.00  10.46000   2 ;    C31-   C30-    N4-   H18
    41     45     46     47      9   180.00  15.16700   2 ;    C31-   C33-   C34-   C35
    41     45     46     75      9   180.00  15.16700   2 ;    C31-   C33-   C34-   H20
    41     49     48     47      9   180.00  15.16700   2 ;    C31-   C37-   C36-   C35
    41     49     48     77      9   180.00  15.16700   2 ;    C31-   C37-   C36-   H22
    42     40     39     73      9     0.00   8.36800   1 ;     O4-   C30-    N4-   H18
    42     40     39     73      9   180.00  10.46000   2 ;     O4-   C30-    N4-   H18
    42     40     41     45      9   180.00   2.42672   2 ;     O4-   C30-   C31-   C33
    42     40     41     49      9   180.00   2.42672   2 ;     O4-   C30-   C31-   C37
    43     38     31     69      9   180.00  10.46000   2 ;    C32-   C29-    N2-   H14
    43     50     51     52      9   180.00  15.16700   2 ;    C32-   C38-   C39-   C40
    43     50     51     80      9   180.00  15.16700   2 ;    C32-   C38-   C39-   H25
    43     54     53     52      9   180.00  15.16700   2 ;    C32-   C42-   C41-   C40
    43     54     53     82      9   180.00  15.16700   2 ;    C32-   C42-   C41-   H27
    44     38     31     69      9     0.00   8.36800   1 ;     O5-   C29-    N2-   H14
    44     38     31     69      9   180.00  10.46000   2 ;     O5-   C29-    N2-   H14
    44     38     43     50      9   180.00   2.42672   2 ;     O5-   C29-   C32-   C38
    44     38     43     54      9   180.00   2.42672   2 ;     O5-   C29-   C32-   C42
    45     41     49     48      9   180.00  15.16700   2 ;    C33-   C31-   C37-   C36
    45     41     49     78      9   180.00  15.16700   2 ;    C33-   C31-   C37-   H23
    45     46     47     48      9   180.00  15.16700   2 ;    C33-   C34-   C35-   C36
    45     46     47     76      9   180.00  15.16700   2 ;    C33-   C34-   C35-   H21
    46     45     41     49      9   180.00  15.16700   2 ;    C34-   C33-   C31-   C37
    46     47     48     49      9   180.00  15.16700   2 ;    C34-   C35-   C36-   C37
    46     47     48     77      9   180.00  15.16700   2 ;    C34-   C35-   C36-   H22
    47     46     45     74      9   180.00  15.16700   2 ;    C35-   C34-   C33-   H19
    47     48     49     78      9   180.00  15.16700   2 ;    C35-   C36-   C37-   H23
    48     47     46     75      9   180.00  15.16700   2 ;    C36-   C35-   C34-   H20
    49     41     45     74      9   180.00  15.16700   2 ;    C37-   C31-   C33-   H19
    49     48     47     76      9   180.00  15.16700   2 ;    C37-   C36-   C35-   H21
    50     43     54     53      9   180.00  15.16700   2 ;    C38-   C32-   C42-   C41
    50     43     54     83      9   180.00  15.16700   2 ;    C38-   C32-   C42-   H28
    50     51     52     53      9   180.00  15.16700   2 ;    C38-   C39-   C40-   C41
    50     51     52     81      9   180.00  15.16700   2 ;    C38-   C39-   C40-   H26
    51     50     43     54      9   180.00  15.16700   2 ;    C39-   C38-   C32-   C42
    51     52     53     54      9   180.00  15.16700   2 ;    C39-   C40-   C41-   C42
    51     52     53     82      9   180.00  15.16700   2 ;    C39-   C40-   C41-   H27
    52     51     50     79      9   180.00  15.16700   2 ;    C40-   C39-   C38-   H24
    52     53     54     83      9   180.00  15.16700   2 ;    C40-   C41-   C42-   H28
    53     52     51     80      9   180.00  15.16700   2 ;    C41-   C40-   C39-   H25
    54     43     50     79      9   180.00  15.16700   2 ;    C42-   C32-   C38-   H24
    54     53     52     81      9   180.00  15.16700   2 ;    C42-   C41-   C40-   H26
    55      3      4     56      9   180.00  15.16700   2 ;      H-    C2-    C3-    H1
    59     22     23     60      9   180.00  15.16700   2 ;     H4-   C20-   C21-    H5
    61     27     28     63      9     0.00   0.65084   3 ;     H6-   C24-   C25-    H8
    61     27     28     64      9     0.00   0.65084   3 ;     H6-   C24-   C25-    H9
    62     27     28     63      9     0.00   0.65084   3 ;     H7-   C24-   C25-    H8
    62     27     28     64      9     0.00   0.65084   3 ;     H7-   C24-   C25-    H9
    63     28     39     73      9     0.00   0.00000   0 ;     H8-   C25-    N4-   H18
    64     28     39     73      9     0.00   0.00000   0 ;     H9-   C25-    N4-   H18
    65     29     30     67      9     0.00   0.65084   3 ;    H10-   C26-   C27-   H12
    65     29     30     68      9     0.00   0.65084   3 ;    H10-   C26-   C27-   H13
    66     29     30     67      9     0.00   0.65084   3 ;    H11-   C26-   C27-   H12
    66     29     30     68      9     0.00   0.65084   3 ;    H11-   C26-   C27-   H13
    67     30     31     69      9     0.00   0.00000   0 ;    H12-   C27-    N2-   H14
    68     30     31     69      9     0.00   0.00000   0 ;    H13-   C27-    N2-   H14
    74     45     46     75      9   180.00  15.16700   2 ;    H19-   C33-   C34-   H20
    75     46     47     76      9   180.00  15.16700   2 ;    H20-   C34-   C35-   H21
    76     47     48     77      9   180.00  15.16700   2 ;    H21-   C35-   C36-   H22
    77     48     49     78      9   180.00  15.16700   2 ;    H22-   C36-   C37-   H23
    79     50     51     80      9   180.00  15.16700   2 ;    H24-   C38-   C39-   H25
    80     51     52     81      9   180.00  15.16700   2 ;    H25-   C39-   C40-   H26
    81     52     53     82      9   180.00  15.16700   2 ;    H26-   C40-   C41-   H27
    82     53     54     83      9   180.00  15.16700   2 ;    H27-   C41-   C42-   H28

[ dihedrals ] ; impropers
; treated as propers in GROMACS to use correct AMBER analytical function
;    i      j      k      l   func   phase     kd      pn
     1      5      6      7      4   180.00   4.60240   2 ;      C-    C4-    C5-    C6
     2      4      3     55      4   180.00   4.60240   2 ;     C1-    C3-    C2-     H
     2     14     11     34      4   180.00  43.93200   2 ;     C1-     N-   C10-    O2
     3      5      4     56      4   180.00   4.60240   2 ;     C2-    C4-    C3-    H1
     4      6      5     16      4   180.00   4.60240   2 ;     C3-    C5-    C4-   C14
     5     13     16     23      4   180.00   4.60240   2 ;     C4-   C12-   C14-   C21
     6      8      7     12      4   180.00   4.60240   2 ;     C5-    C7-    C6-   C11
     7      9      8     36      4   180.00   4.60240   2 ;     C6-    C8-    C7-    N3
     7     13     12     17      4   180.00   4.60240   2 ;     C6-   C12-   C11-   C15
     8     10      9     57      4   180.00   4.60240   2 ;     C7-    C9-    C8-    H2
     8     17     36     37      4   180.00   4.60240   2 ;     C7-   C15-    N3-   C28
    10      1      6      2      4   180.00   4.60240   2 ;     C9-     C-    C5-    C1
    10     14     15     35      4   180.00  43.93200   2 ;     C9-     N-   C13-    O3
    11      1      2      3      4   180.00   4.60240   2 ;    C10-     C-    C1-    C2
    11     15     14     29      4   180.00   4.60240   2 ;    C10-   C13-     N-   C26
    12     16     13     20      4   180.00   4.60240   2 ;    C11-   C14-   C12-   C18
    12     18     17     36      4   180.00   4.60240   2 ;    C11-   C16-   C15-    N3
    13     19     20     21      4   180.00   4.60240   2 ;    C12-   C17-   C18-   C19
    15      1     10      9      4   180.00   4.60240   2 ;    C13-     C-    C9-    C8
    16     22     23     60      4   180.00   4.60240   2 ;    C14-   C20-   C21-    H5
    17     19     18     58      4   180.00   4.60240   2 ;    C15-   C17-   C16-    H3
    19     25     24     32      4   180.00  43.93200   2 ;    C17-    N1-   C22-     O
    21     23     22     59      4   180.00   4.60240   2 ;    C19-   C21-   C20-    H4
    21     25     26     33      4   180.00  43.93200   2 ;    C19-    N1-   C23-    O1
    24     18     19     20      4   180.00   4.60240   2 ;    C22-   C16-   C17-   C18
    24     26     25     27      4   180.00   4.60240   2 ;    C22-   C23-    N1-   C24
    26     20     21     22      4   180.00   4.60240   2 ;    C23-   C18-   C19-   C20
    38     30     31     69      4   180.00   4.60240   2 ;    C29-   C27-    N2-   H14
    38     50     43     54      4   180.00   4.60240   2 ;    C29-   C38-   C32-   C42
    40     28     39     73      4   180.00   4.60240   2 ;    C30-   C25-    N4-   H18
    40     45     41     49      4   180.00   4.60240   2 ;    C30-   C33-   C31-   C37
    41     39     40     42      4   180.00  43.93200   2 ;    C31-    N4-   C30-    O4
    41     46     45     74      4   180.00   4.60240   2 ;    C31-   C34-   C33-   H19
    41     48     49     78      4   180.00   4.60240   2 ;    C31-   C36-   C37-   H23
    43     31     38     44      4   180.00  43.93200   2 ;    C32-    N2-   C29-    O5
    43     51     50     79      4   180.00   4.60240   2 ;    C32-   C39-   C38-   H24
    43     53     54     83      4   180.00   4.60240   2 ;    C32-   C41-   C42-   H28
    45     47     46     75      4   180.00   4.60240   2 ;    C33-   C35-   C34-   H20
    46     48     47     76      4   180.00   4.60240   2 ;    C34-   C36-   C35-   H21
    47     49     48     77      4   180.00   4.60240   2 ;    C35-   C37-   C36-   H22
    50     52     51     80      4   180.00   4.60240   2 ;    C38-   C40-   C39-   H25
    51     53     52     81      4   180.00   4.60240   2 ;    C39-   C41-   C40-   H26
    52     54     53     82      4   180.00   4.60240   2 ;    C40-   C42-   C41-   H27

